64
Lattice="10.403764437994873 -0.028445280644836826 0.004790737106044869 5.177247883341231 8.988241922603583 -0.020213363731869077 0.0 0.0 21.64329385918772" Properties=species:S:1:pos:R:3:tags:I:1:initial_magmoms:R:1:forces:R:3 unique_id=e13a05d4977844a6b42a1e7ccd66d288 energy=-381.1687665311398 stress="0.005302868322924139 -0.00024250139473014598 0.0001504086965746141 -0.00024250139473014598 0.005398873347458354 -0.00028037692035192595 0.0001504086965746141 -0.00028037692035192595 -0.0017014919963474085" pbc="T T T"
Ni       0.01311521       0.01844993       0.14890937        1       1.00000000       0.07591811      -0.04959911      -0.04466533
Pt       2.52769506       0.01205282       0.19550022        2       0.00000000      -0.08566298       0.03543815      -0.46838658
Pt       5.16593296      -0.02319256       0.10882340        1       0.00000000      -0.09236017       0.16994407      -0.90306614
Pt       7.88559762      -0.06081897       0.14057591        1       0.00000000       0.00314862      -0.16533369      -0.79846202
Ni       1.25040204       2.28066223       0.08184322        1       1.00000000      -0.10914546       0.06538959       0.57622634
Pt       3.82731705       2.33952520       0.09901664        1       0.00000000       0.03728101      -0.03294494       0.15497169
Pt       6.51186943       2.30192425       0.14394467        1       0.00000000       0.03747968       0.13945417      -0.57026715
Ni       9.15176985       2.24367533       0.14700765        1       1.00000000       0.04492446       0.12245654       0.07719021
Ni       2.59071084       4.48290996       0.05257403        1       1.00000000       0.02679043       0.02118932       0.36670088
Ni       5.15392654       4.51054231       0.15055170        2       1.00000000      -0.06020317       0.07479870       0.19939234
Pt       7.88085886       4.50411433       0.09170753        1       0.00000000       0.01959358      -0.05263049       0.19485169
Ni      10.40485813       4.42527624       0.05356466        1       1.00000000       0.08185190      -0.15004662       0.43364944
Ni       3.89121740       6.69976047       0.15180285        2       1.00000000      -0.03528691      -0.14368001       0.18393922
Pt       6.42358917       6.70715767       0.16718914        2       0.00000000      -0.08454701       0.01478018      -0.27960265
Ni       9.07707655       6.69879274       0.04823427        0       1.00000000      -0.07326508       0.05350656       0.15045857
Pt      11.70750380       6.61654291       0.00000000        0       0.00000000       0.20128340       0.04871104      -0.19893305
Ni       1.30872520       0.77602434       2.23374674        3       1.00000000       0.10754925       0.20241700       0.15440434
Ni       3.86774742       0.78404133       2.25376858        4       1.00000000       0.01422091       0.14363382       0.22425068
Pt       6.46037256       0.78876064       2.29930128        4       0.00000000      -0.08340396       0.12089836       0.10647420
Pt       9.22391807       0.76992253       2.22911216        3       0.00000000       0.07295174       0.11245608       0.05456012
Ni       2.60110318       2.98139659       2.22395865        3       1.00000000       0.05969904      -0.02289506       0.14541084
Ni       5.14956589       3.04057952       2.25294264        4       1.00000000      -0.19359783       0.16826719       0.23145576
Ni       7.83497162       3.03829310       2.23876042        3       1.00000000       0.12815359       0.15787490       0.21644671
Ni      10.40255654       2.97172697       2.20690490        3       1.00000000       0.11894970       0.11026605       0.08516236
Ni       3.92486099       5.22842021       2.22420528        3       1.00000000       0.11517348      -0.06124834       0.16406239
Ni       6.47307173       5.22715284       2.24310701        3       1.00000000      -0.09199815       0.03327005       0.20759800
Ni       9.05835802       5.18525644       2.24329047        3       1.00000000      -0.08123775      -0.18827845       0.23672519
Pt      11.74239005       5.12683979       2.21012286        3       0.00000000       0.09684293      -0.14475854       0.02919047
Ni       5.17294556       7.43705462       2.20453214        3       1.00000000      -0.10394005      -0.17409108       0.13029277
Ni       7.75473563       7.43820564       2.22162461        3       1.00000000      -0.03947108      -0.23260350       0.12941435
Pt      10.31362075       7.39122803       2.19094709        3       0.00000000      -0.05878169      -0.20298505      -0.15053075
Ni      13.02933606       7.40766804       2.20824004        3       1.00000000       0.04502976      -0.18513617       0.16411309
Ni       0.01959352       1.51629563       4.40501056        6       1.00000000       0.09774907      -0.05435243      -0.16541819
Pt       2.62880777       1.54567995       4.35251392        6       0.00000000       0.01545978      -0.00487387      -0.11313930
Ni       5.17183620       1.52170767       4.40636839        6       1.00000000      -0.02283900       0.16850697      -0.26213461
Pt       7.86177047       1.54829582       4.37775935        6       0.00000000       0.13597202       0.01206792      -0.03079570
Pt       1.29380957       3.72746816       4.45822715        7       0.00000000      -0.04027293      -0.00512090      -0.02063197
Ni       3.89876827       3.75973456       4.38779448        6       1.00000000       0.05259268       0.13693031      -0.30815406
Pt       6.47220384       3.80794429       4.30408483        5       0.00000000      -0.05718174       0.07599177      -0.12793390
Ni       9.08766521       3.73500906       4.39381184        6       1.00000000      -0.04946417       0.01987262      -0.28849329
Ni       2.61629937       5.93002294       4.39566279        6       1.00000000       0.13035918      -0.22013625      -0.25046420
Ni       5.16237485       5.93984161       4.35223500        6       1.00000000      -0.10821419      -0.07523341      -0.38587609
Ni       7.79200028       5.93313407       4.37426558        6       1.00000000      -0.08290460      -0.02182748      -0.35618789
Pt      10.32819728       5.88736043       4.47224480        7       0.00000000      -0.09577445      -0.04622282      -0.12398167
Pt       3.90291521       8.14932344       4.31084180        5       0.00000000       0.04845474      -0.11866676      -0.13893687
Pt       6.46515908       8.18463040       4.27098099        5       0.00000000      -0.09878107      -0.04140480      -0.22498921
Pt       9.04611896       8.19675112       4.33451985        5       0.00000000      -0.05585577      -0.05996147      -0.18174781
Pt      11.70437289       8.14922023       4.36397183        6       0.00000000       0.07306633      -0.11672850      -0.19971190
Pt       0.02530155       0.03281057       6.64329386        9       0.00000000       0.03124840       0.05954809       0.08802883
Pt       2.60890317       0.03262224       6.60327588        9       0.00000000       0.02429790       0.02717993       0.51058622
Pt       5.18133563      -0.06598615       6.55317896        9       0.00000000       0.02746034       0.12967847       0.85691818
Pt       7.80335681      -0.05069613       6.58850170        9       0.00000000       0.00558120       0.14855025       0.92289877
Ni       1.32313856       2.29152131       6.60929248        9       1.00000000       0.05092139       0.04114014      -0.23497562
Ni       3.85928063       2.25802995       6.53440071        8       1.00000000      -0.00955372      -0.01214285      -0.05121947
Pt       6.47869917       2.25719447       6.54829887        8       0.00000000      -0.04759119      -0.04981134       0.58481351
Pt       9.18193406       2.34126587       6.63055354        9       0.00000000       0.02939066       0.11634828       0.04078445
Ni       2.54532355       4.45223214       6.59696832        9       1.00000000      -0.06482090      -0.00370714      -0.34175803
Pt       5.11847799       4.43632155       6.60217475        9       0.00000000      -0.13611925       0.07034566      -0.08283907
Ni       7.83787393       4.49168419       6.52748091        8       1.00000000       0.10262299       0.08262592      -0.19734993
Ni      10.41489458       4.49219426       6.61645672        9       1.00000000       0.05227462       0.06664535      -0.24830984
Pt       3.81366831       6.65728929       6.60467426        9       0.00000000       0.00909112      -0.09104150      -0.03168880
Pt       6.54924500       6.66040486       6.52822222        8       0.00000000      -0.10790617      -0.07036066       0.20234591
Ni       9.11105425       6.66121957       6.59958617        9       1.00000000      -0.07374081      -0.03512964      -0.21090111
Ni      11.66106639       6.64603703       6.52077562        8       1.00000000       0.07053722      -0.11723058       0.16823472
