64
Lattice="10.467335745942075 0.0032407577872304626 0.07113829129692811 5.2364744515422865 9.113091914930827 0.00441462718239129 0.05808417161698219 -0.02937276169594884 9.056113842331614" Properties=species:S:1:pos:R:3:tags:I:1:initial_magmoms:R:1:forces:R:3 unique_id=cc5e8273768e44e68c0831e5072646ab stress="-0.0004734437117425508 -3.6261499791063865e-06 -4.531441103039052e-06 -3.6261499791063865e-06 -0.0004808848604949678 6.4765891315765055e-06 -4.531441103039052e-06 6.4765891315765055e-06 -0.0003955854641164158" energy=-409.5254066397662 pbc="T T T"
Pt      -0.10719128      -0.02789349       0.15988219        4       0.00000000      -0.12750496      -0.00944049      -0.05548984
Ni       2.65569390      -0.04000016       0.09854883        4       1.00000000       0.10522797      -0.09153100       0.09358663
Ni       5.26091761      -0.04535539       0.18396176        4       1.00000000       0.10466986      -0.04614354       0.13852336
Ni       7.83401332      -0.03779746       0.17155772        4       1.00000000      -0.11273056      -0.14013128       0.16552497
Pt       1.27519149       2.27392586       0.11270816        4       0.00000000       0.04294390      -0.04198302      -0.11855776
Pt       3.97309372       2.24129798       0.14131955        4       0.00000000       0.07924579      -0.00773837      -0.07597223
Pt       6.60161624       2.20024837       0.18478354        4       0.00000000       0.08424627      -0.10744352      -0.04064488
Ni       9.15044404       2.27242781       0.13678319        4       1.00000000      -0.00912617      -0.04042940       0.09863411
Pt       2.62698093       4.64110798       0.10614665        4       0.00000000       0.05941137       0.03486784      -0.14414165
Ni       5.26775051       4.55642046       0.17853506        4       1.00000000       0.20508672      -0.08620768       0.15619797
Pt       7.92737600       4.56381802       0.19431921        4       0.00000000       0.09383893      -0.03819832       0.01406033
Ni      10.46167263       4.59535994       0.12587201        4       1.00000000       0.05108601       0.11775939       0.06164804
Ni       3.91306881       6.86152790       0.17930880        4       1.00000000      -0.02299731       0.06297589       0.13705349
Pt       6.57094211       6.84074216       0.23330762        4       0.00000000       0.03892245      -0.00785062       0.07372367
Ni       9.19412485       6.84593925       0.12515818        4       1.00000000       0.05422588      -0.01534027       0.06569569
Ni      11.78101272       6.87495392       0.20458679        4       1.00000000       0.08630839       0.08619520       0.08272464
Pt       1.30794286       0.66179502       2.26780116        3       0.00000000       0.02324890      -0.02616176      -0.00947224
Pt       4.01749791       0.73311808       2.30979657        3       0.00000000       0.02603873       0.04100653       0.09359359
Ni       6.59693903       0.73718404       2.32838942        3       1.00000000       0.04031169      -0.04202612       0.01256920
Ni       9.10195500       0.73594113       2.32821052        3       1.00000000      -0.15402189       0.05357080      -0.00117008
Pt       2.65257605       3.04955768       2.30495362        3       0.00000000      -0.04455192       0.04021294       0.01898494
Ni       5.28874213       3.03183424       2.31863374        3       1.00000000       0.02240871      -0.00838220      -0.00827286
Pt       7.79619931       3.02228104       2.43642375        3       0.00000000      -0.07043120       0.00555705      -0.00245987
Pt      10.37854978       3.05579827       2.30997755        3       0.00000000      -0.09749482       0.03106691      -0.06733699
Pt       4.03856930       5.38060330       2.23227613        3       0.00000000       0.06425389       0.01190082       0.05456490
Ni       6.60960047       5.31368521       2.32255928        3       1.00000000       0.13475159      -0.01098363       0.06463116
Ni       9.13141930       5.34612194       2.36086567        3       1.00000000      -0.07251819       0.04551956       0.10311199
Pt      11.73122329       5.36568779       2.31783140        3       0.00000000      -0.02179373      -0.00561857       0.00389940
Ni       5.23661140       7.58543679       2.27613429        3       1.00000000       0.00841456       0.02555723       0.03304068
Ni       7.88186870       7.52728409       2.31004379        3       1.00000000       0.05585340      -0.09010597       0.08574370
Pt      10.46835639       7.57845080       2.23968135        3       0.00000000      -0.03745744      -0.00409397       0.07667295
Ni      13.11640455       7.65021040       2.28433376        3       1.00000000      -0.02407246       0.07040029      -0.05852953
Pt      -0.10844512       1.56379353       4.47266012        2       0.00000000      -0.11209502       0.05758742      -0.11345191
Pt       2.66362027       1.47130051       4.51180350        2       0.00000000      -0.07167176      -0.00995532      -0.06223334
Ni       5.32307379       1.51666433       4.49137887        2       1.00000000       0.07657575       0.03549186      -0.14140027
Ni       7.84725739       1.53947662       4.51867014        2       1.00000000      -0.07850664       0.00113542      -0.11023708
Pt       1.22338530       3.84623883       4.50310695        2       0.00000000      -0.08397561       0.03612846      -0.10227337
Pt       4.06126054       3.74416263       4.45960484        2       0.00000000       0.06071393       0.01107275      -0.06586483
Ni       6.62469403       3.76394185       4.52343179        2       1.00000000       0.04880596       0.01571114       0.05832038
Ni       9.13700521       3.82550409       4.53008079        2       1.00000000      -0.08588291       0.07734146      -0.15120300
Pt       2.61344691       6.09651102       4.45147073        2       0.00000000      -0.00104791       0.05177549      -0.04763586
Pt       5.37073400       6.02068863       4.44732877        2       0.00000000       0.06372405      -0.05928001       0.03898680
Ni       7.93920413       6.00379048       4.48510719        2       1.00000000       0.04980000      -0.11351033      -0.15515717
Ni      10.42581899       6.04289696       4.57529369        2       1.00000000      -0.07508846      -0.03195710      -0.02731938
Pt       3.92703663       8.37113206       4.39777560        2       0.00000000      -0.00000573      -0.03579164      -0.10571447
Pt       6.59540555       8.29759377       4.47029760        2       0.00000000      -0.00535116       0.02075256      -0.04023958
Pt       9.19935571       8.24127601       4.55474100        2       0.00000000      -0.03532157      -0.02623912       0.00514436
Pt      11.79610715       8.42592109       4.49822071        2       0.00000000      -0.02408879       0.00942029       0.00282872
Pt      -0.00850503       0.01796101       6.69479440        1       0.00000000      -0.09118302       0.02153472      -0.02124006
Ni       2.66347531      -0.03506261       6.75096492        1       1.00000000      -0.05366809       0.04726811      -0.06950232
Pt       5.23811429      -0.05244126       6.82254720        1       0.00000000      -0.06524715      -0.00530149       0.11953107
Ni       7.88177190      -0.00704945       6.77674713        1       1.00000000      -0.06439176      -0.04916676      -0.10646299
Pt       1.27155654       2.27342855       6.67928961        1       0.00000000      -0.08693847       0.05172369       0.00167565
Pt       3.96874518       2.21537174       6.68454350        1       0.00000000       0.02534619       0.01407433       0.01100284
Pt       6.66609027       2.21208430       6.64779141        1       0.00000000      -0.00160505      -0.03168006      -0.03160401
Ni       9.19222514       2.27008783       6.77654172        1       1.00000000      -0.04023511       0.03140545      -0.06642428
Pt       2.61714534       4.53947001       6.67297714        1       0.00000000       0.05016408       0.00522786      -0.05928500
Pt       5.32244990       4.53487645       6.77529732        1       0.00000000       0.06800395       0.02288294       0.11417458
Pt       8.00732878       4.54058311       6.65068869        1       0.00000000       0.02413702       0.02489752       0.00493950
Ni      10.47648043       4.55143745       6.77211177        1       1.00000000      -0.01579431       0.02918976      -0.07626070
Pt       3.93730715       6.85725299       6.79139568        1       0.00000000      -0.03526345       0.01130986       0.10003301
Pt       6.68434446       6.84967307       6.72085150        1       0.00000000       0.03622511       0.04677514       0.06863675
Ni       9.20574004       6.80640855       6.75345311        1       1.00000000      -0.00823053      -0.02828026      -0.08388673
Pt      11.72696941       6.80271840       6.83200211        1       0.00000000      -0.05369790      -0.03832486       0.05998520
