64
Lattice="10.251008505304936 -0.019386929414633346 0.03613768475203155 5.108714679278018 8.779974861563753 -0.021906818313885978 0.0 0.0 21.528136400730318" Properties=species:S:1:pos:R:3:tags:I:1:initial_magmoms:R:1:forces:R:3 unique_id=fcce52146b41471cb6c0d8296b298e67 stress="0.005380847904855642 -8.20117647245267e-07 0.00024130379160076479 -8.20117647245267e-07 0.004552343954479912 -4.76618090927961e-05 0.00024130379160076479 -4.76618090927961e-05 -0.0013821857728463505" energy=-372.1545624256889 pbc="T T T"
Ni       0.02087783      -0.01507793       0.12137110        1       1.00000000       0.09482515      -0.01600938      -0.15104077
Ni       2.52960926      -0.00526117       0.15968217        2       1.00000000      -0.04060035       0.01716250      -0.14905077
Pt       5.12679322      -0.04753249       0.10437794        1       0.00000000      -0.04119625       0.19456790      -1.04010868
Ni       7.71458106      -0.06814579       0.15672693        2       1.00000000      -0.04067941      -0.02191791      -0.29910404
Ni       1.28002063       2.20292081       0.04752367        0       1.00000000      -0.02062007       0.06453866       0.32910701
Pt       3.76782090       2.24576823       0.13417666        1       0.00000000       0.07353238      -0.01753337      -0.53423339
Pt       6.42172832       2.25098515       0.06742455        1       0.00000000       0.02646107      -0.03703704      -0.05971630
Pt       9.03944574       2.22719047       0.09121438        1       0.00000000       0.00941055       0.11778568      -0.52450551
Ni       2.54777511       4.42331326       0.00000000        0       1.00000000       0.05896060       0.03689053       0.26658741
Ni       5.09538572       4.42000041       0.04423258        0       1.00000000      -0.14160893       0.10066475       0.34766843
Ni       7.70495721       4.41208078       0.05801786        1       1.00000000       0.12852227       0.05971522       0.31228232
Ni      10.26756322       4.40404756       0.03732063        0       1.00000000       0.02015978       0.07406435       0.30451340
Ni       3.80715001       6.56964659       0.02881060        0       1.00000000       0.01804150      -0.04030317       0.38796404
Pt       6.38508313       6.56579342       0.04139978        0       0.00000000      -0.03957021       0.07802247       0.09809130
Ni       8.95176359       6.52023378       0.10500951        1       1.00000000      -0.09532604      -0.10554075      -0.24764249
Ni      11.55987552       6.52997673       0.02596434        0       1.00000000       0.05630993       0.04060436       0.19101478
Ni       1.29769358       0.71854328       2.12908856        3       1.00000000      -0.01507749       0.00027867       0.05540508
Ni       3.82563322       0.73819691       2.17709086        4       1.00000000       0.04280019      -0.02652993       0.19121117
Ni       6.41456459       0.75766553       2.20212589        4       1.00000000      -0.05627792       0.18821890       0.25944464
Pt       8.99084748       0.70493398       2.20895067        4       0.00000000       0.00870217       0.07793524       0.01262135
Ni       2.55283123       2.92162235       2.17629750        4       1.00000000       0.05174683       0.02354782       0.07365428
Ni       5.11861893       2.94225960       2.20010380        4       1.00000000      -0.06269743       0.07102102       0.17440736
Ni       7.69098071       2.95255148       2.20235889        4       1.00000000       0.04853814       0.06469633       0.15949309
Ni      10.27123100       2.90632262       2.22048404        4       1.00000000       0.00962896      -0.05507639       0.25464498
Ni       3.87838334       5.10455109       2.14012673        3       1.00000000       0.13870608      -0.05388462       0.06573889
Ni       6.40241400       5.10248878       2.15802327        4       1.00000000      -0.01325783      -0.01724339       0.08581251
Ni       8.92137684       5.05708225       2.16160036        4       1.00000000      -0.12615749      -0.23374635       0.10926494
Pt      11.57246691       5.03078093       2.17398716        4       0.00000000       0.13382032      -0.11344292       0.09574822
Ni       5.13891473       7.26476288       2.13533177        3       1.00000000       0.06057043      -0.16445100       0.11726530
Ni       7.63043092       7.28628177       2.14275477        3       1.00000000      -0.15399313      -0.08782141       0.19777144
Pt      10.21959865       7.22497184       2.14293334        3       0.00000000      -0.05289357      -0.16929909      -0.17488624
Ni      12.84481366       7.25253725       2.11188584        3       1.00000000       0.14033676      -0.14667764      -0.00918564
Ni       0.01683881       1.48950094       4.26348023        6       1.00000000      -0.05928816       0.05834464      -0.18440744
Pt       2.50933909       1.51193357       4.20705772        5       0.00000000      -0.06465702       0.01828627       0.07006188
Ni       5.15138941       1.47018206       4.25767587        6       1.00000000      -0.04953293      -0.01149765      -0.38077345
Ni       7.69582393       1.46310987       4.29482643        6       1.00000000      -0.03999449      -0.01030651      -0.26178666
Ni       1.26463706       3.67429956       4.31564529        6       1.00000000      -0.05964973       0.03132819       0.00863446
Ni       3.84329973       3.70991999       4.25560479        6       1.00000000      -0.03523086       0.12731750      -0.26945805
Pt       6.41266915       3.65746681       4.28197199        6       0.00000000      -0.01428054      -0.02316501      -0.04517632
Ni       9.00216110       3.66750479       4.26264710        6       1.00000000       0.01390395       0.09833656      -0.29612179
Ni       2.58311757       5.76707403       4.31232476        6       1.00000000       0.03692680      -0.13243983      -0.06617876
Ni       5.13357170       5.80741532       4.29026542        6       1.00000000       0.05288122      -0.10537658      -0.22779283
Ni       7.66730361       5.79823622       4.27135627        6       1.00000000      -0.03258608      -0.03521535      -0.30333469
Ni      10.26292997       5.74295805       4.32274701        6       1.00000000      -0.00489850      -0.05447738      -0.09020103
Pt       3.91110926       7.95364340       4.23121847        5       0.00000000       0.10127805      -0.13712920       0.03818296
Ni       6.39651829       7.97741815       4.23616164        5       1.00000000      -0.04493980      -0.10352417      -0.29998250
Pt       8.89101694       7.98118621       4.22531765        5       0.00000000      -0.09059867       0.02622132      -0.08914599
Pt      11.56943166       7.98241654       4.23245058        5       0.00000000      -0.01116560      -0.10481958      -0.02416435
Pt       0.02975347      -0.06087970       6.47430641        9       0.00000000       0.03282070       0.07996137       0.29831154
Pt       2.55464466      -0.03474260       6.50476542        9       0.00000000       0.02971624      -0.00683952       0.41912382
Pt       5.15076138      -0.01566937       6.40361213        8       0.00000000      -0.05653682       0.17461403       1.09127104
Pt       7.71319634      -0.07890903       6.52813640        9       0.00000000       0.03923958       0.16703953       0.39383316
Ni       1.28985436       2.23763483       6.42467363        8       1.00000000       0.00095876       0.11439222      -0.18068441
Pt       3.86242524       2.30536165       6.37377170        8       0.00000000       0.07997415       0.11994656       0.49974534
Ni       6.42939877       2.20998595       6.37021923        8       1.00000000      -0.01159897      -0.00788551       0.17035963
Pt       8.99540061       2.26073574       6.34264582        7       0.00000000      -0.01880406      -0.05440580       0.54117962
Ni       2.54725643       4.41644839       6.40290043        8       1.00000000       0.01302585       0.00356052      -0.36349193
Ni       5.14645582       4.41901504       6.42611104        8       1.00000000      -0.03031210       0.08302335      -0.30638329
Ni       7.65008839       4.35500250       6.43718926        8       1.00000000      -0.12905425      -0.01461191      -0.22726205
Ni      10.32629392       4.35131560       6.42997065        8       1.00000000       0.13141573      -0.01991695      -0.29492527
Ni       3.84704572       6.47486692       6.41749743        8       1.00000000       0.01666103      -0.12213541      -0.32163809
Ni       6.38163573       6.49134896       6.33979476        7       1.00000000      -0.00681476       0.01030559      -0.07548867
Pt       8.98021139       6.41193739       6.45621215        9       0.00000000      -0.01622679      -0.06052064       0.11740937
Ni      11.56955649       6.47025375       6.44509089        8       1.00000000       0.00625108      -0.01161069      -0.23995332
