64
Lattice="10.325770410654066 -0.024232268819834663 0.01874684478704861 5.141899444937721 8.971629853820044 0.03334723160923356 0.0 0.0 21.5877945403587" Properties=species:S:1:pos:R:3:tags:I:1:initial_magmoms:R:1:forces:R:3 unique_id=84dab98d40054e76aac1e41ccbf8f61c energy=-378.90900455276665 stress="0.005923996993278344 0.0001561502475416745 5.861175785993642e-05 0.0001561502475416745 0.006062698631179914 0.00013589016824784835 5.861175785993642e-05 0.00013589016824784835 -0.0009820570618547363" pbc="T T T"
Ni       0.04171550       0.00425006       0.07840336        1       1.00000000       0.13000535       0.00056095       0.00183084
Ni       2.54278433       0.00589955       0.11151089        1       1.00000000      -0.08687223       0.06753890       0.05482660
Pt       5.10135465      -0.03393482       0.05738265        1       0.00000000      -0.09201719       0.20274529      -0.80622434
Pt       7.77648512      -0.12296061       0.09594879        1       0.00000000      -0.11697353      -0.04334705      -0.68458565
Ni       1.29616288       2.25342002       0.02273633        0       1.00000000       0.00787759       0.04808199       0.46323630
Pt       3.78009362       2.29774591       0.12098240        1       0.00000000       0.00268610       0.05017715      -0.31707057
Pt       6.43453276       2.26782839       0.05419149        1       0.00000000       0.02015128      -0.02912524      -0.03417029
Pt       9.13535489       2.26013797       0.07715571        1       0.00000000      -0.04259530       0.12296089      -0.48131193
Ni       2.56583157       4.51219163       0.00000000        0       1.00000000       0.11882281      -0.01876534       0.32405166
Ni       5.11695746       4.51099030       0.10979159        1       1.00000000      -0.09767057       0.12383195       0.19882336
Pt       7.77385699       4.53779649       0.05316569        1       0.00000000       0.02006132       0.10192752       0.06269688
Ni      10.36320207       4.48880143       0.01568707        0       1.00000000       0.04519373      -0.01306867       0.28610550
Ni       3.84094834       6.68233552       0.04162447        0       1.00000000      -0.00976581      -0.15807063       0.51600024
Pt       6.40000633       6.77177650       0.13336754        1       0.00000000      -0.03289952       0.04557149      -0.19494589
Ni       9.03075714       6.70242782       0.11247489        1       1.00000000      -0.13523968      -0.03301894      -0.19105579
Ni      11.61427275       6.65701321       0.01943659        0       1.00000000       0.03839542       0.05090418       0.19616513
Ni       1.31905510       0.74398587       2.12419284        2       1.00000000       0.14286653      -0.02803854       0.01213145
Ni       3.84875760       0.76779099       2.16060022        3       1.00000000       0.02235410      -0.00428973       0.19316987
Ni       6.43129115       0.78050229       2.18023095        3       1.00000000      -0.09335568       0.17388411       0.24652966
Pt       9.12139474       0.72491560       2.19711042        3       0.00000000       0.19179102       0.02173642      -0.04588626
Ni       2.57427997       2.99643667       2.17130503        3       1.00000000       0.00750257       0.06066096       0.12129270
Ni       5.13867665       3.01519529       2.19708432        3       1.00000000      -0.09417660       0.07968541       0.23210725
Ni       7.74007548       3.02320265       2.18522918        3       1.00000000       0.02879762       0.11416634       0.15844695
Ni      10.34771514       2.98226839       2.19663818        3       1.00000000       0.08487301      -0.00336897       0.21737358
Ni       3.90109094       5.23323663       2.16758457        3       1.00000000       0.16975762      -0.03661026       0.13461255
Ni       6.42762974       5.24152662       2.19644630        3       1.00000000      -0.07065190       0.08133295       0.17039886
Ni       8.99226201       5.19794912       2.19372362        3       1.00000000      -0.13507284      -0.18356119       0.25444960
Pt      11.66392909       5.17038857       2.10421401        2       0.00000000       0.12717233      -0.11461537       0.03314668
Ni       5.16212605       7.44603894       2.19271002        3       1.00000000       0.04106433      -0.18976657       0.20345667
Ni       7.68668531       7.47458822       2.18740626        3       1.00000000      -0.15149803      -0.00239567       0.25204675
Pt      10.28389001       7.42426451       2.15544785        3       0.00000000       0.00503884      -0.10080566      -0.24009761
Ni      12.93453063       7.40357915       2.18758047        3       1.00000000       0.22984509      -0.23390391       0.13571160
Ni       0.01961879       1.51367186       4.30582379        5       1.00000000      -0.01234223      -0.06579202      -0.21622184
Pt       2.55797068       1.51111904       4.21363046        4       0.00000000      -0.01521422      -0.10389983      -0.10535661
Ni       5.16029239       1.53410466       4.29051379        5       1.00000000      -0.08655024       0.06901869      -0.43320555
Pt       7.74093930       1.54716919       4.28004072        5       0.00000000      -0.04573122      -0.01056755      -0.14378401
Pt       1.29861081       3.73530184       4.37246048        6       0.00000000       0.03440291      -0.03873528       0.02061161
Ni       3.87569555       3.78971245       4.28879938        5       1.00000000      -0.00871355       0.10373682      -0.37370245
Pt       6.42835057       3.80314559       4.26934882        5       0.00000000      -0.09412990       0.06732239      -0.10004442
Ni       9.02181849       3.75614578       4.30817021        5       1.00000000      -0.10282555       0.02748034      -0.39308484
Ni       2.62291903       5.95719179       4.36337875        6       1.00000000       0.12259827      -0.16325847      -0.10174175
Ni       5.14442573       5.96885208       4.29109397        5       1.00000000       0.02500003      -0.13211431      -0.40689197
Ni       7.70675344       5.96534382       4.30315082        5       1.00000000      -0.11773848       0.01071216      -0.42877324
Pt      10.29657125       5.90671277       4.35644583        6       0.00000000      -0.01281178      -0.01487558      -0.02448784
Pt       3.94645339       8.13430066       4.30023359        5       0.00000000       0.12045475      -0.15999861       0.05647213
Ni       6.43424558       8.20568893       4.29170773        5       1.00000000      -0.02197490      -0.08502061      -0.43679847
Pt       8.93856183       8.20982156       4.28389258        5       0.00000000      -0.11020868      -0.07347299      -0.10469780
Pt      11.63013149       8.18492246       4.28257775        5       0.00000000       0.03163705      -0.11249689      -0.15354061
Pt       0.00813775       0.04458200       6.51397368        8       0.00000000       0.00639472       0.20390589       0.14193795
Pt       2.57209983       0.03450654       6.55377773        9       0.00000000       0.06454712      -0.13552228       0.24955826
Pt       5.19042898       0.01953054       6.44125050        7       0.00000000      -0.04424214       0.12749256       0.74689054
Pt       7.76157663      -0.05337604       6.48572788        8       0.00000000       0.08102853       0.10439689       0.74705946
Ni       1.28871264       2.30921224       6.51121084        8       1.00000000      -0.02391057       0.07221791      -0.15267348
Pt       3.84028195       2.31904649       6.43884517        7       0.00000000       0.07726232       0.10947338       0.32581495
Ni       6.46828376       2.27608547       6.44638781        7       1.00000000      -0.06457898       0.02070618       0.00548022
Pt       9.07118904       2.35232301       6.44162807        7       0.00000000       0.07306166      -0.02083141       0.51166516
Ni       2.54248123       4.54413273       6.51176394        8       1.00000000      -0.00270742       0.07182453      -0.33521838
Pt       5.12105687       4.51608230       6.52563364        8       0.00000000      -0.12330101       0.02289462      -0.10106276
Ni       7.74524879       4.47375663       6.44201007        7       1.00000000      -0.03670616       0.05951748      -0.08992340
Ni      10.37087557       4.48109192       6.53978989        8       1.00000000       0.07258134      -0.01189869      -0.14178197
Ni       3.82285499       6.70145193       6.51299902        8       1.00000000      -0.10557020      -0.06994152      -0.28734790
Pt       6.42609903       6.71034054       6.42085457        7       0.00000000       0.04597402       0.02277008       0.25094510
Pt       9.06920079       6.62841019       6.58779454        9       0.00000000      -0.06718998      -0.01012569       0.26710149
Ni      11.64944374       6.66455700       6.54519414        8       1.00000000       0.06603673      -0.03793293      -0.26645990
