64
Lattice="10.188359261396428 0.05027338047461458 -0.018820708133079244 5.137717655323352 8.832263250762198 -0.022779216759115234 -0.015367043841297884 -0.012604284622229544 8.723583314984149" Properties=species:S:1:pos:R:3:tags:I:1:initial_magmoms:R:1:forces:R:3 unique_id=fcdeae5883dd4a22b56d3e071d2ce633 stress="-0.007102687795726384 -7.624662746758996e-06 2.0789330084022392e-05 -7.624662746758996e-06 -0.007068397643985487 -2.6408946022112164e-05 2.0789330084022392e-05 -2.6408946022112164e-05 -0.006094219680480205" energy=-392.5008199052576 pbc="T T T"
Ni       0.03485895      -0.04423925       0.20286305        4       1.00000000       0.06912394      -0.04634504       0.17079171
Ni       2.50475074       0.02752720       0.16423502        4       1.00000000      -0.02526772       0.12085834       0.00209537
Pt       5.12353842      -0.03556022       0.21536917        4       0.00000000      -0.04130399      -0.03702448      -0.03386308
Ni       7.65090361      -0.01007545       0.16949606        4       1.00000000      -0.00083417      -0.08078762       0.07123071
Ni       1.27921404       2.23273688       0.12271074        4       1.00000000      -0.02331837       0.11472447       0.11627413
Pt       3.79910119       2.29212378       0.18921591        4       0.00000000      -0.03018140       0.07159897      -0.09689787
Ni       6.38161494       2.27699137       0.11342930        4       1.00000000      -0.01499794       0.07381756       0.13091132
Pt       8.92761194       2.31721598       0.12548010        4       0.00000000      -0.01535952       0.12382063      -0.20121681
Ni       2.54407687       4.46256063       0.10569666        4       1.00000000      -0.01414002       0.05279293       0.09092792
Ni       5.13239961       4.47274052       0.09956173        4       1.00000000      -0.04092449       0.05438225       0.02461888
Ni       7.63079061       4.48161425       0.10038467        4       1.00000000      -0.04474962       0.09264445       0.11292393
Ni      10.24360702       4.49069026       0.09548992        4       1.00000000       0.05997974       0.04800914       0.03291748
Ni       3.85012715       6.59915099       0.10156822        4       1.00000000      -0.03385330      -0.03798637       0.05073454
Ni       6.35745684       6.60525850       0.05477512        4       1.00000000      -0.12282716      -0.04432453      -0.10863494
Ni       8.96598459       6.58214598       0.16840673        4       1.00000000       0.10749185      -0.10716059       0.14942557
Ni      11.52300021       6.60898538       0.09566696        4       1.00000000       0.03121599      -0.04830871       0.05221985
Ni       1.30243375       0.78529441       2.16817434        3       1.00000000       0.02242189       0.10781696       0.04121194
Ni       3.78325063       0.78202143       2.18931516        3       1.00000000      -0.09795686       0.03537896       0.01113915
Ni       6.37944602       0.77203548       2.19486954        3       1.00000000       0.03354971       0.02355971       0.04106571
Pt       8.89511736       0.75799263       2.16025989        3       0.00000000       0.03814987       0.00216082       0.11580144
Ni       2.52286879       2.98607986       2.24133344        3       1.00000000      -0.02160949       0.10594512       0.05994559
Ni       5.11671533       3.01284623       2.16352736        3       1.00000000       0.00486689       0.09647707      -0.01179144
Ni       7.62820316       3.01636197       2.18855351        3       1.00000000       0.01016213       0.05610012       0.04156246
Ni      10.24443088       3.05289742       2.17497444        3       1.00000000       0.05192429       0.06496644       0.00760207
Ni       3.84217413       5.13939235       2.14561680        3       1.00000000      -0.03467283      -0.05240842      -0.03819976
Ni       6.35131380       5.14193412       2.11972287        3       1.00000000      -0.05781645      -0.00418774      -0.00644892
Ni       8.97261173       5.13289930       2.14963402        3       1.00000000       0.00356315      -0.05938771       0.03164399
Ni      11.47523443       5.17523981       2.13647941        3       1.00000000      -0.00028923      -0.06355950       0.00190199
Ni       5.10495669       7.29001319       2.13850346        3       1.00000000      -0.11358923      -0.14565415       0.02785283
Pt       7.62035187       7.35583844       2.08479924        3       0.00000000      -0.08235886      -0.01334393      -0.01127982
Ni      10.27907850       7.30967887       2.18908640        3       1.00000000       0.04232075      -0.18166815       0.08595399
Ni      12.73805032       7.33906452       2.11425820        3       1.00000000       0.01713841      -0.09155046      -0.00523593
Pt       0.08087482       1.52313847       4.27897520        2       0.00000000       0.06542819      -0.06661930       0.00271690
Ni       2.54872906       1.52820095       4.26729781        2       1.00000000       0.05455768       0.04013860      -0.10374604
Pt       5.10652372       1.50198734       4.21017307        2       0.00000000       0.03157824      -0.00357938      -0.07838148
Ni       7.64015195       1.50085565       4.29265087        2       1.00000000       0.02069451      -0.04436089      -0.06979059
Ni       1.28901686       3.67948629       4.31988479        2       1.00000000       0.02495937      -0.01280811      -0.07196018
Ni       3.80329317       3.70726558       4.25697486        2       1.00000000       0.01889212       0.01433015      -0.20262799
Pt       6.36964001       3.69901737       4.30787268        2       0.00000000       0.02113736      -0.03064259      -0.02787750
Ni       8.97401005       3.75057527       4.24736100        2       1.00000000       0.06490615       0.01983842      -0.19754046
Pt       2.53158853       5.80887671       4.29553375        2       0.00000000      -0.00971777      -0.00961269      -0.08740690
Ni       5.09983666       5.86605180       4.31147283        2       1.00000000      -0.01981936      -0.07444705      -0.13993433
Pt       7.64894695       5.87759184       4.28624062        2       0.00000000       0.01084949      -0.00746670      -0.00302518
Ni      10.22852038       5.85967296       4.27245987        2       1.00000000      -0.02008641      -0.05956671      -0.09534693
Pt       3.86554276       8.02497209       4.27003810        2       0.00000000       0.03873660       0.00139833       0.04657874
Ni       6.39197799       8.08618082       4.27497386        2       1.00000000       0.00831446       0.00738897      -0.09002827
Pt       8.96284655       8.09743560       4.21712586        2       0.00000000      -0.01013022      -0.05649809      -0.03040759
Ni      11.50435360       8.08727907       4.23191649        2       1.00000000       0.03403109      -0.03390774      -0.11452331
Pt      -0.00090359      -0.06968758       6.54549307        1       0.00000000      -0.04511548      -0.02818952       0.20234325
Pt       2.51373096       0.01469251       6.48357226        1       0.00000000       0.07460378       0.02036933      -0.00308445
Pt       5.11119335       0.01088936       6.42439006        1       0.00000000      -0.02995840      -0.00447516       0.11020972
Pt       7.62501345      -0.01470643       6.49222548        1       0.00000000       0.05996191      -0.02577533       0.09597549
Ni       1.27288885       2.27199547       6.45365003        1       1.00000000       0.03207525       0.04986805      -0.00596034
Pt       3.79928146       2.35425985       6.38357855        1       0.00000000      -0.01239816       0.08564122       0.00476437
Ni       6.36084374       2.27968473       6.45746127        1       1.00000000      -0.02453204       0.02647337       0.02216492
Pt       8.89716213       2.35365314       6.35246910        1       0.00000000      -0.04133592       0.06730445      -0.00099276
Ni       2.52549478       4.45229553       6.45694283        1       1.00000000      -0.01417867       0.05758505       0.00669409
Ni       5.11054564       4.48033355       6.45362899        1       1.00000000      -0.03596589       0.07346395      -0.03232280
Ni       7.58793000       4.43994600       6.46759953        1       1.00000000      -0.13604965       0.00333632       0.05301928
Ni      10.27568447       4.43790898       6.41588934        1       1.00000000       0.14346567      -0.02086406      -0.10757051
Ni       3.84801510       6.52774469       6.46575315        1       1.00000000      -0.01065692      -0.09408763      -0.00539420
Ni       6.35241124       6.56273607       6.44032167        1       1.00000000      -0.01684186      -0.02137624      -0.15029387
Pt       8.96322820       6.51020309       6.52145944        1       0.00000000       0.03641520      -0.08711265       0.16365469
Ni      11.51426059       6.58743571       6.43764063        1       1.00000000       0.01032169      -0.01710287      -0.04708978
