64
Lattice="10.804670835422128 0.0008867631270189422 -0.005734163853336929 5.403103377106202 9.34987637302765 -0.006149664021953843 -0.004681925180728965 -0.003094848079170451 9.445770387654557" Properties=species:S:1:pos:R:3:tags:I:1:initial_magmoms:R:1:forces:R:3 unique_id=86c09815ee0643289e72242a29a2222b stress="0.00023118796368307853 3.753111753577181e-08 -1.1612264356557461e-07 3.753111753577181e-08 0.0002308962523235661 1.3799754318091007e-06 -1.1612264356557461e-07 1.3799754318091007e-06 0.00018067952213686456" energy=-433.4782848030404 pbc="T T T"
Pt      -0.00788578       0.00438497       0.11404184        4       0.00000000       0.00468470      -0.00269881       0.04798647
Pt       2.69765526      -0.00216470       0.09099828        4       0.00000000      -0.00899176      -0.01556752       0.02991072
Pt       5.40317175       0.00004375       0.09218147        4       0.00000000      -0.00476100      -0.00455539       0.04811142
Pt       8.11417371       0.00608605       0.11031687        4       0.00000000       0.01320608       0.00093994       0.04354442
Pt       1.34958912       2.33641024       0.09261001        4       0.00000000       0.01027763      -0.01232151       0.04047233
Pt       4.05125108       2.33732764       0.08763653        4       0.00000000      -0.00791760      -0.01855549       0.04686676
Pt       6.75413750       2.33704056       0.09107340        4       0.00000000      -0.00980572       0.00021303       0.02748761
Pt       9.45467180       2.32594152       0.10840164        4       0.00000000       0.00490640      -0.01616710       0.04459905
Pt       2.70141324       4.67429532       0.09283864        4       0.00000000      -0.00382498      -0.00225046       0.07078935
Pt       5.40269841       4.67502975       0.08948969        4       0.00000000       0.00241877       0.00431957       0.05148255
Pt       8.10455329       4.67235327       0.09070901        4       0.00000000       0.00140134      -0.00143467       0.04267333
Pt      10.80366034       4.67194897       0.09167349        4       0.00000000      -0.00578474      -0.00864578       0.06820875
Pt       4.05213068       7.01418766       0.09202249        4       0.00000000       0.00781821      -0.00162031       0.06333555
Pt       6.75110878       7.01742355       0.08785193        4       0.00000000       0.00607738       0.02150647       0.06763497
Pt       9.45436417       7.01491521       0.08288439        4       0.00000000      -0.01321588       0.01305864       0.06426452
Pt      12.15810620       7.01591234       0.08928595        4       0.00000000      -0.00286673       0.01404206       0.08670855
Pt       1.31666894       0.76355804       2.41728429        3       0.00000000      -0.02289216      -0.02819960       0.05224518
Pt       4.04798565       0.76255691       2.41639589        3       0.00000000       0.00689614      -0.03174065       0.06587254
Pt       6.78546850       0.77727108       2.38701163        3       0.00000000       0.02007830      -0.00596620       0.03693140
Ni       9.45569091       0.77788993       2.36399186        3       1.00000000       0.01509319      -0.00944211       0.02248175
Pt       2.69357260       3.10409195       2.39562854        3       0.00000000      -0.01252109      -0.04698819       0.08721271
Pt       5.40594188       3.10860324       2.38956435        3       0.00000000       0.00575785      -0.02023922       0.06779430
Pt       8.12155680       3.08450703       2.38516869        3       0.00000000       0.01623100      -0.01531712       0.05426725
Pt      10.78732154       3.07940426       2.38736012        3       0.00000000      -0.00855762      -0.04292131       0.06745068
Pt       4.05346256       5.46442622       2.39182660        3       0.00000000       0.01083319       0.02423288       0.07976255
Pt       6.75556076       5.46091712       2.38952515        3       0.00000000       0.01831681       0.02256493       0.05823324
Pt       9.45006224       5.45331456       2.38750741        3       0.00000000      -0.01731807       0.00628059       0.05661614
Pt      12.15206763       5.45793233       2.38658524        3       0.00000000      -0.01095678       0.01229797       0.08191520
Pt       5.39935142       7.82879173       2.41284394        3       0.00000000       0.03489255       0.03215469       0.08091617
Pt       8.09598425       7.81180330       2.44433067        3       0.00000000      -0.01654684       0.07509308       0.16066710
Pt      10.79376491       7.80171454       2.40928956        3       0.00000000      -0.03645173       0.02215404       0.09107005
Pt      13.52533210       7.82543525       2.38738993        3       0.00000000       0.02073324       0.03680007       0.07072530
Pt       0.01000553       1.51752867       4.66796246        2       0.00000000      -0.00699422      -0.03879287      -0.07042665
Pt       2.69406902       1.47828357       4.68697001        2       0.00000000      -0.02243686      -0.11767707      -0.07139915
Pt       5.37922713       1.52357991       4.68857472        2       0.00000000      -0.01114965      -0.03116981      -0.05742311
Pt       8.11482688       1.54297107       4.66255384        2       0.00000000       0.03892368      -0.02470097      -0.09379690
Pt       1.34678841       3.88187472       4.68866808        2       0.00000000      -0.00368263      -0.04334894      -0.06963568
Pt       4.04916687       3.88620355       4.68912529        2       0.00000000      -0.00661346      -0.02768255      -0.06886718
Pt       6.75393329       3.89917445       4.68749654        2       0.00000000       0.01676651       0.01850576      -0.06854616
Pt       9.45126970       3.90082268       4.68844340        2       0.00000000      -0.00739721       0.03465305      -0.04002628
Pt       2.70120651       6.24259883       4.68688181        2       0.00000000       0.00518327       0.02144846      -0.06447868
Pt       5.42338633       6.27039366       4.68423792        2       0.00000000       0.02374184       0.05295962      -0.06593916
Pt       8.10099232       6.31113068       4.68747666        2       0.00000000      -0.00447231       0.10177585      -0.02685465
Pt      10.77826263       6.26586146       4.68552708        2       0.00000000      -0.02706647       0.02622614      -0.05377672
Pt       4.08195024       8.58298429       4.66233582        2       0.00000000       0.00860114       0.03474751      -0.07640942
Ni       6.76790945       8.57019749       4.70629066        2       1.00000000       0.02899013       0.00726672      -0.02387513
Ni       9.43338643       8.56934571       4.70870570        2       1.00000000      -0.04300740       0.00435104      -0.02221552
Pt      12.12322907       8.57098696       4.68422134        2       0.00000000      -0.01319126       0.00311449      -0.03560242
Pt       0.00679437      -0.00673717       6.96759293        1       0.00000000       0.01046714       0.00070973      -0.06652530
Pt       2.69712157      -0.01604922       6.93915315        1       0.00000000      -0.00739755      -0.03039914      -0.08167409
Pt       5.38633343      -0.00776087       6.96350182        1       0.00000000      -0.01788894      -0.00384080      -0.06282119
Pt       8.10252466      -0.00230867       6.97969362        1       0.00000000       0.00969794       0.00045092      -0.06630558
Pt       1.35048334       2.33063373       6.98058504        1       0.00000000       0.00475732      -0.01438584      -0.08121677
Pt       4.04533334       2.33066628       6.97646241        1       0.00000000      -0.01333505      -0.01056089      -0.08126821
Pt       6.74753048       2.33314160       6.98056918        1       0.00000000       0.00377420      -0.01185379      -0.09381870
Pt       9.45331491       2.33092575       6.98086117        1       0.00000000       0.00688956      -0.01464682      -0.06986574
Pt       2.69791983       4.67295353       6.98585107        1       0.00000000       0.00020778      -0.00295445      -0.06451587
Pt       5.40048184       4.67633063       6.97964464        1       0.00000000       0.00623827       0.00695272      -0.08019509
Pt       8.10057091       4.67991824       6.97500236        1       0.00000000       0.00086270       0.02505080      -0.07864138
Pt      10.80112974       4.67617022       6.97913248        1       0.00000000      -0.00110636       0.00085975      -0.05712683
Pt       4.05089188       7.01087246       6.98365336        1       0.00000000      -0.00288058       0.00970488      -0.05847091
Pt       6.75090455       7.02305058       6.95941518        1       0.00000000      -0.01790561       0.01257025      -0.04328262
Pt       9.44990253       7.02301204       6.95751434        1       0.00000000       0.01324346       0.00773935      -0.04615038
Pt      12.15118900       7.01143401       6.97885523        1       0.00000000       0.01097051       0.00190037      -0.03708646
