64
Lattice="10.317509975089592 -0.016116737715310855 0.036685383400198106 5.144797483257209 8.891273287587143 0.013922384093015702 0.02995349011628453 -0.004167505978532174 8.803196089354289" Properties=species:S:1:pos:R:3:tags:I:1:initial_magmoms:R:1:forces:R:3 unique_id=c6cd04ea8eb444e286e9509ced554ed5 stress="0.00022635666803091925 4.48769584076651e-06 -2.034012358378915e-05 4.48769584076651e-06 0.0002274973614731779 5.9262355872164615e-06 -2.034012358378915e-05 5.9262355872164615e-06 0.0002204822808743248" energy=-398.3465223247807 pbc="T T T"
Ni      -0.01588084       0.02733545       0.20369455        4       1.00000000      -0.05889627       0.11221224       0.31367972
Ni       2.58073557       0.00111219       0.21780785        4       1.00000000       0.02889250       0.00070377       0.40437278
Ni       5.16174652      -0.02030912       0.18160218        4       1.00000000       0.00010400       0.15651821       0.25288152
Ni       7.76403951      -0.04760236       0.14147611        4       1.00000000       0.08204566      -0.10253220       0.20291594
Ni       1.26946434       2.21566702       0.08977663        4       1.00000000      -0.07285622      -0.06431449       0.12703372
Pt       3.80365340       2.21935878       0.11902637        4       0.00000000      -0.04398399       0.03651125      -0.12943073
Pt       6.47625869       2.15258704       0.21498451        4       0.00000000       0.07017232      -0.09331678       0.18875661
Ni       9.04854421       2.17174255       0.17821070        4       1.00000000      -0.00154908      -0.18805112       0.11936236
Ni       2.55708192       4.45476784       0.06489166        4       1.00000000      -0.02355529       0.02005081       0.00040336
Ni       5.14864112       4.44123743       0.17417777        4       1.00000000       0.19016139      -0.09196139       0.21228754
Pt       7.80824088       4.44726230       0.12966107        4       0.00000000       0.18101566      -0.01919527      -0.10443916
Ni      10.34318635       4.44018757       0.08902026        4       1.00000000       0.12496826      -0.00228226       0.02419276
Ni       3.82940176       6.69794902       0.18585711        4       1.00000000      -0.02734224       0.15790702       0.22201458
Pt       6.42176603       6.71634550       0.22044195        4       0.00000000      -0.04171601       0.04443656       0.15960148
Ni       9.04494492       6.67457799       0.10455194        4       1.00000000       0.02384831       0.03906250       0.00791047
Ni      11.61484050       6.66739327       0.09516148        4       1.00000000       0.12390574       0.07688102      -0.05163972
Ni       1.29686473       0.73050514       2.16909051        3       1.00000000      -0.00838463       0.06201200      -0.06406111
Ni       3.86831145       0.75446386       2.21707508        3       1.00000000       0.04400409       0.05909507       0.05565511
Ni       6.48164109       0.73482302       2.26875380        3       1.00000000       0.07954849       0.03866625       0.15948319
Ni       9.00790763       0.71127206       2.21308825        3       1.00000000      -0.14465299       0.01998010      -0.05099568
Ni       2.58460896       2.93813658       2.21586529        3       1.00000000      -0.08401035       0.02518117      -0.02025531
Ni       5.15537621       2.92925144       2.25865094        3       1.00000000      -0.08216849      -0.16771336       0.03388986
Ni       7.74817120       2.93343882       2.26358979        3       1.00000000       0.09336099      -0.11196764      -0.07640427
Pt      10.28064926       2.88756657       2.22743981        3       0.00000000      -0.01306812      -0.01463008       0.02707853
Pt       3.88777109       5.16392086       2.17457500        3       0.00000000      -0.02940378      -0.07097102       0.03406308
Ni       6.48723637       5.16788796       2.24116996        3       1.00000000       0.12959311       0.01658122      -0.06250386
Ni       8.99583413       5.18042222       2.28100818        3       1.00000000      -0.02727002      -0.02148217       0.16123924
Pt      11.59717997       5.18073567       2.20828774        3       0.00000000      -0.06666382       0.00012560      -0.01165918
Ni       5.13398263       7.45458745       2.20419665        3       1.00000000      -0.10929464       0.06793211      -0.06526568
Ni       7.73681243       7.40401086       2.23113895        3       1.00000000       0.02892303      -0.07650623      -0.00510949
Pt      10.28667197       7.42216384       2.15936411        3       0.00000000       0.00232093      -0.05303796      -0.00679222
Ni      12.91036346       7.43422662       2.21041414        3       1.00000000      -0.04804996       0.02821013      -0.05807391
Ni      -0.00872280       1.51867954       4.35570965        2       1.00000000      -0.00445599       0.08146511      -0.06631261
Pt       2.62718831       1.54303847       4.32754889        2       0.00000000      -0.00343069       0.00774234      -0.09558444
Ni       5.17482714       1.48881911       4.35052852        2       1.00000000       0.06451984      -0.03064045      -0.16972834
Ni       7.77522893       1.48545652       4.35064187        2       1.00000000       0.10067232       0.06538039      -0.20562023
Pt       1.26707007       3.75616615       4.45207724        2       0.00000000      -0.02379067      -0.00142394      -0.05287536
Ni       3.87642078       3.69279625       4.38048607        2       1.00000000       0.02755860       0.03960849      -0.15978390
Pt       6.51394727       3.66245727       4.28701516        2       0.00000000      -0.03805870      -0.07695912       0.06834697
Ni       9.03960579       3.71804911       4.39583350        2       1.00000000       0.03253806       0.05911902      -0.19762848
Ni       2.55492024       5.90949882       4.39821303        2       1.00000000      -0.02795738       0.03298390      -0.09431989
Pt       5.14670814       5.88886242       4.32527268        2       0.00000000       0.03657996       0.03779684       0.08261199
Ni       7.80867398       5.86624962       4.36909022        2       1.00000000       0.06659712      -0.08161251      -0.18423345
Ni      10.29666571       5.88546121       4.44978892        2       1.00000000      -0.06404939       0.01007238      -0.08610103
Pt       3.84749911       8.20976809       4.29680983        2       0.00000000      -0.00153077       0.03958187       0.00310044
Pt       6.44891803       8.16929084       4.27222504        2       0.00000000      -0.00177682       0.03975753       0.02574289
Pt       9.03326990       8.08602379       4.36950145        2       0.00000000      -0.04723705       0.01744066       0.11369412
Pt      11.62735981       8.13207990       4.38977909        2       0.00000000      -0.00546223      -0.00873773      -0.01899548
Pt      -0.00150800       0.03731680       6.58962515        1       0.00000000      -0.06480812       0.02666969       0.19526318
Pt       2.61970096       0.04926123       6.62472002        1       0.00000000      -0.01851668       0.09574685       0.25513163
Pt       5.21151577      -0.08065843       6.61436189        1       0.00000000       0.02069235      -0.23172178       0.13877800
Ni       7.75030259      -0.01924358       6.57119244        1       1.00000000       0.03823243       0.04961273      -0.11389521
Ni       1.32305795       2.27667176       6.54701338        1       1.00000000       0.02743573       0.11023836      -0.06719006
Ni       3.85453729       2.24248856       6.47058587        1       1.00000000      -0.03283205      -0.00573182      -0.26889250
Pt       6.48017398       2.18043109       6.48675175        1       0.00000000       0.00650026      -0.01681607      -0.23840085
Pt       9.08607330       2.29678566       6.54272315        1       0.00000000       0.14739161       0.15009335       0.01667082
Ni       2.53784044       4.42181398       6.53986670        1       1.00000000      -0.16191483      -0.03178203      -0.09863768
Pt       5.10204417       4.38444985       6.58153253        1       0.00000000      -0.12631107      -0.02775943       0.05694453
Ni       7.80321949       4.45076546       6.46895835        1       1.00000000       0.04708871       0.03844631      -0.30127948
Ni      10.33648962       4.48038131       6.56395438        1       1.00000000      -0.04088252       0.20202246      -0.06940293
Pt       3.74954330       6.65469916       6.59361467        1       0.00000000      -0.18608517      -0.00418248       0.15038597
Pt       6.53321095       6.60939422       6.51097842        1       0.00000000       0.03962451      -0.03195828      -0.21265108
Ni       9.08157276       6.58794813       6.55123877        1       1.00000000       0.04511226      -0.18986941      -0.18414498
Ni      11.58005024       6.59660246       6.56529312        1       1.00000000      -0.17144221      -0.24868827      -0.22118411
