64
Lattice="10.150405214105149 -0.026190834587837167 0.020564568780596936 5.052520678953188 8.786488627161074 0.06695849413301262 0.0167909000976104 0.05343484298803243 8.703759057860665" Properties=species:S:1:pos:R:3:tags:I:1:initial_magmoms:R:1:forces:R:3 unique_id=001e4c97ab9548d4a3ec256e81b87a68 stress="-0.005735582547089883 1.1564646402180392e-05 -2.6943974364148108e-05 1.1564646402180392e-05 -0.005771491163436518 -3.318223139216172e-05 -2.6943974364148108e-05 -3.318223139216172e-05 -0.005126300258455847" energy=-391.59542555609755 pbc="T T T"
Ni       0.04682810       0.01700874       0.16323984        4       1.00000000       0.17112565       0.15318741       0.08202691
Ni       2.52855566      -0.02676630       0.22373421        4       1.00000000       0.01106263       0.00640431       0.19647606
Ni       5.06514846      -0.03878970       0.06223450        4       1.00000000      -0.09183337      -0.04540222      -0.05895616
Ni       7.60290936      -0.03766072       0.05767295        4       1.00000000       0.06075307       0.02748125      -0.02786708
Ni       1.26758111       2.22512447       0.13966836        4       1.00000000       0.02811872       0.13172161       0.10396601
Pt       3.79042520       2.20702350       0.23072212        4       0.00000000       0.00164582       0.00376703      -0.04479060
Ni       6.33566586       2.24220486       0.09028813        4       1.00000000      -0.00528137       0.25404783       0.03384854
Pt       8.88632603       2.25585684       0.03610640        4       0.00000000       0.03359010       0.10676973      -0.23783697
Ni       2.50138778       4.42923180       0.14093219        4       1.00000000      -0.01174008       0.04385126       0.06536531
Ni       5.06410204       4.41787698       0.11192278        4       1.00000000      -0.02882216       0.05973385       0.02907078
Ni       7.60935476       4.41807238       0.10888817        4       1.00000000       0.07737650       0.10482994      -0.02213398
Ni      10.17250560       4.42284582       0.15576918        4       1.00000000       0.02957477       0.12139607       0.04402079
Ni       3.79336746       6.55573018       0.08927462        4       1.00000000       0.03363908      -0.03990724      -0.05274900
Ni       6.35643565       6.58716852       0.09176458        4       1.00000000       0.05610750       0.05765415      -0.12584161
Ni       8.83489890       6.55906192       0.21624964        4       1.00000000      -0.08783997      -0.03162855       0.11512462
Ni      11.38960626       6.54634782       0.10341288        4       1.00000000      -0.06647515       0.00573602      -0.11189783
Ni       1.33876422       0.80868399       2.18415195        3       1.00000000       0.00889055       0.09303269       0.10884555
Ni       3.73266954       0.72546124       2.23388723        3       1.00000000      -0.04053558      -0.07108205       0.15139948
Pt       6.30132507       0.78224767       2.11743478        3       0.00000000      -0.03281007       0.00202364      -0.04531267
Pt       8.95870008       0.79686473       2.20984051        3       0.00000000       0.01114631       0.00668244      -0.01731842
Ni       2.51054190       2.95886139       2.24178800        3       1.00000000      -0.01411691       0.03963512       0.07967062
Ni       5.03306662       2.97361410       2.24066722        3       1.00000000      -0.01642761       0.02868942       0.11161006
Ni       7.64329504       2.96491379       2.21786153        3       1.00000000       0.06733120      -0.00808662       0.01311291
Ni      10.18535293       2.97605257       2.22550254        3       1.00000000       0.02313276       0.02228315      -0.01430816
Ni       3.77149040       5.05814794       2.22260507        3       1.00000000      -0.01155181      -0.04815605      -0.00709845
Pt       6.38487889       5.09107008       2.18072042        3       0.00000000       0.05241901      -0.03112009      -0.01166771
Ni       8.90009956       5.06423281       2.24256382        3       1.00000000       0.06771676      -0.09739560       0.03809146
Ni      11.39561618       5.05122277       2.21157965        3       1.00000000      -0.01051127      -0.02338401      -0.02035333
Pt       5.10781075       7.29626244       2.17667107        3       0.00000000      -0.01488936      -0.02751903       0.03393532
Ni       7.61087507       7.33183253       2.23071195        3       1.00000000      -0.03523461      -0.06397562       0.08605666
Pt      10.05313115       7.25870103       2.26596513        3       0.00000000       0.00164121      -0.01582413       0.01443316
Pt      12.64438684       7.20697043       2.21090256        3       0.00000000      -0.00198589      -0.01332404      -0.05127142
Ni       0.04750233       1.52316173       4.34579029        2       1.00000000       0.03982924      -0.04773889      -0.03222324
Ni       2.51321206       1.51241355       4.29648439        2       1.00000000      -0.04159272       0.02049265       0.01901210
Pt       5.00461775       1.43623279       4.32661794        2       0.00000000      -0.00964333      -0.03882548      -0.02806051
Pt       7.64737395       1.50140434       4.41843065        2       0.00000000      -0.06375363      -0.04271613      -0.09177623
Pt       1.26406447       3.70538126       4.34833497        2       0.00000000      -0.02378865      -0.03014594       0.00621667
Ni       3.78100955       3.74792225       4.31646344        2       1.00000000      -0.03075636       0.06577839      -0.08660481
Pt       6.33347644       3.74484466       4.43057225        2       0.00000000      -0.01492464      -0.00729530       0.02908143
Ni       8.90527007       3.72852734       4.36752535        2       1.00000000      -0.01426583       0.05808778      -0.11081236
Ni       2.51267863       5.84462945       4.40688774        2       1.00000000      -0.03675396      -0.03145787      -0.08724886
Ni       5.03382261       5.85147546       4.41606317        2       1.00000000      -0.03234884      -0.00115383      -0.07699246
Ni       7.66156947       5.86542705       4.37043753        2       1.00000000       0.10126458      -0.00704688      -0.07879304
Ni      10.15074555       5.85407197       4.38707067        2       1.00000000       0.02820738      -0.05592852      -0.01058713
Pt       3.74381823       7.99564976       4.43997615        2       0.00000000      -0.02532237      -0.01860421      -0.02917579
Pt       6.40073189       8.05865619       4.36034212        2       0.00000000       0.00569273      -0.00087464       0.06932054
Ni       8.89497544       8.02249406       4.38953822        2       1.00000000       0.01048828      -0.10227371       0.06452228
Ni      11.36441202       7.99677299       4.45490781        2       1.00000000      -0.05359554      -0.05976534      -0.07846077
Pt      -0.05924846       0.05284203       6.52786073        1       0.00000000      -0.09560103      -0.04453671       0.15405315
Pt       2.58692785       0.03186923       6.51867562        1       0.00000000       0.04056727      -0.00869320       0.20970419
Ni       5.15261643      -0.00194863       6.45191160        1       1.00000000       0.01455653      -0.07170616      -0.07855579
Ni       7.55454188      -0.01687396       6.48594413        1       1.00000000      -0.10994552      -0.10600660      -0.02927265
Ni       1.23925130       2.27462377       6.46683352        1       1.00000000      -0.02074711      -0.04270176       0.02489693
Pt       3.81074131       2.34341887       6.42799140        1       0.00000000      -0.06387532       0.12931512       0.14359188
Ni       6.37574365       2.21813919       6.51064294        1       1.00000000       0.00601898      -0.05806973       0.03109257
Ni       8.90024741       2.27782760       6.37516116        1       1.00000000       0.08336053       0.10421801      -0.21085852
Ni       2.51817462       4.49220687       6.48280908        1       1.00000000      -0.06998400       0.05073836       0.01609654
Ni       5.07460556       4.49070158       6.50031076        1       1.00000000      -0.03441241       0.08990866       0.02210480
Ni       7.61310233       4.39107471       6.50301765        1       1.00000000       0.02759707      -0.07652925      -0.01832539
Ni      10.17165330       4.38050314       6.49832209        1       1.00000000       0.04624431      -0.06704699       0.01820139
Ni       3.77400887       6.55513947       6.50787049        1       1.00000000      -0.03121708      -0.10370573      -0.03837502
Ni       6.31213323       6.55043159       6.48885119        1       1.00000000       0.02511334      -0.06186627      -0.16438709
Pt       8.92593797       6.52803493       6.51741276        1       0.00000000       0.04182417      -0.10227260       0.12419484
Ni      11.45646557       6.59300590       6.48481309        1       1.00000000       0.03654748      -0.08369891      -0.13923050
