64
Lattice="10.4038912780605 0.004121529333780765 0.02092425230500234 5.205514988135746 8.954573440844635 0.010164960897813147 0.0 0.0 21.5891506230857" Properties=species:S:1:pos:R:3:tags:I:1:initial_magmoms:R:1:forces:R:3 unique_id=fbb355a294054d398ec20301650a2869 stress="0.006043133989166032 0.00016595395782428353 0.0004509727195454382 0.00016595395782428353 0.0058424975483799615 0.00016025558449707296 0.0004509727195454382 0.00016025558449707296 -0.0014615902358036219" energy=-379.55609730120784 pbc="T T T"
Ni      -0.03133451      -0.00472259       0.10850162        1       1.00000000      -0.11090684       0.01094236       0.09961448
Ni       2.62195018      -0.01651250       0.03011600        0       1.00000000       0.08023568       0.00384709       0.41210934
Ni       5.20415048      -0.02182817       0.08433803        1       1.00000000       0.03789631       0.14441945      -0.22907674
Ni       7.82604014      -0.03711704       0.04068708        0       1.00000000       0.01811079      -0.08686012       0.52444884
Pt       1.27793773       2.20925990       0.07295521        1       0.00000000       0.10273832      -0.11496224      -0.69086245
Pt       3.90170991       2.23074459       0.12084710        1       0.00000000       0.00689281      -0.00858242      -0.49817896
Pt       6.52185467       2.16662242       0.08122292        1       0.00000000      -0.04452911      -0.16173374      -0.60103348
Ni       9.11002478       2.21306207       0.07612300        1       1.00000000       0.01502631      -0.14664740       0.01463042
Ni       2.60730600       4.50642205       0.06501627        1       1.00000000      -0.00343292      -0.07249325      -0.19400727
Ni       5.20061322       4.48844666       0.08955089        1       1.00000000       0.20052709      -0.05171258      -0.14394965
Pt       7.87421678       4.51435929       0.00323511        0       0.00000000      -0.03491976       0.06156310       0.02054555
Ni      10.41891832       4.51536535       0.00000000        0       1.00000000       0.05796442       0.06870701       0.25979947
Ni       3.87847094       6.74393535       0.10065185        1       1.00000000      -0.05290750       0.17871910       0.02585086
Pt       6.49081460       6.77792927       0.13402228        1       0.00000000      -0.07637881       0.02189327      -0.39508627
Ni       9.13181993       6.74013277       0.01035976        0       1.00000000      -0.04460476      -0.00558282       0.29826557
Ni      11.71867819       6.73602899       0.00722945        0       1.00000000       0.13095506       0.10377153       0.31551060
Ni       1.30909305       0.70279276       2.13639415        2       1.00000000       0.01633801      -0.12677007      -0.02016788
Ni       3.90150425       0.74703818       2.16246423        3       1.00000000       0.01854116      -0.02612144       0.10296612
Ni       6.51180144       0.72756724       2.18644682        3       1.00000000       0.03045289      -0.02010542       0.22813176
Ni       9.10194384       0.71024190       2.13911921        2       1.00000000      -0.06376858      -0.09746322      -0.04105855
Ni       2.62794110       2.98021566       2.16979061        3       1.00000000       0.01503155       0.11177638       0.21956686
Ni       5.19007249       2.96760651       2.20264758        3       1.00000000      -0.02516852      -0.09039265       0.38049191
Pt       7.80577571       2.95493656       2.21769906        3       0.00000000      -0.07458493      -0.08206910       0.05779378
Pt      10.38104836       2.94550821       2.21797564        3       0.00000000       0.05487153       0.00826881       0.04234705
Pt       3.93519600       5.21730175       2.11859129        2       0.00000000       0.03996341      -0.00221596       0.09667893
Ni       6.53191534       5.23777525       2.17106389        3       1.00000000       0.13813069      -0.03492821       0.24216045
Ni       9.08617448       5.25534413       2.20062806        3       1.00000000      -0.11009595       0.05852488       0.23562780
Pt      11.70509487       5.26121198       2.12748339        2       0.00000000      -0.06913965       0.00339519       0.00603275
Ni       5.19446550       7.50272737       2.13828632        2       1.00000000      -0.10193494       0.09657199       0.09154532
Ni       7.81040173       7.46940915       2.16604807        3       1.00000000       0.06851053       0.00973707       0.08836531
Pt      10.37742541       7.49386537       2.09016970        2       0.00000000      -0.04756707       0.00810901      -0.04033985
Ni      13.02955853       7.50430670       2.13991848        2       1.00000000      -0.02224444       0.12557796      -0.04778031
Ni      -0.02836893       1.51109340       4.31252795        5       1.00000000      -0.05576319       0.04042182      -0.21202124
Pt       2.64105072       1.52069203       4.21193690        4       0.00000000       0.05003113       0.03512043      -0.16220163
Ni       5.22733357       1.49814263       4.29150301        5       1.00000000       0.03070961       0.01415556      -0.43071391
Ni       7.82914336       1.49567334       4.32652553        5       1.00000000       0.00962601       0.01092934      -0.25919644
Pt       1.26696970       3.79867949       4.32261182        5       0.00000000       0.02848295       0.08016973       0.05961072
Ni       3.91323966       3.72860956       4.31299867        5       1.00000000       0.00990603      -0.01334333      -0.30231548
Pt       6.53914723       3.72315457       4.30528042        5       0.00000000      -0.07349718       0.01425100       0.06893839
Ni       9.11328481       3.76723270       4.37142629        6       1.00000000      -0.01500932       0.08523827      -0.15422093
Ni       2.59085163       5.97279168       4.33666066        5       1.00000000       0.00809536       0.05787218      -0.20714977
Pt       5.19981955       5.95500053       4.27913242        5       0.00000000      -0.06780631       0.07260076      -0.06847955
Ni       7.87235452       5.92885683       4.33033307        5       1.00000000       0.10919654      -0.11199498      -0.29371975
Ni      10.38492126       5.95414229       4.39601104        6       1.00000000      -0.05116128       0.05558943      -0.06194218
Pt       3.88795768       8.26634036       4.24932630        4       0.00000000      -0.00163235       0.05505612      -0.13467578
Pt       6.51811456       8.22489801       4.24616178        4       0.00000000      -0.02165937       0.09271294      -0.15238977
Pt       9.11341228       8.14756639       4.34345077        5       0.00000000      -0.07612462      -0.04539609      -0.04498742
Pt      11.72865226       8.20504899       4.33753930        5       0.00000000      -0.05428759      -0.02624555      -0.07225191
Pt       0.00266200      -0.00016447       6.56410719        9       0.00000000       0.08874584       0.12835902       0.09522864
Ni       2.62920756      -0.02235029       6.53378593        8       1.00000000      -0.00666387      -0.02074910      -0.17953442
Pt       5.20893264      -0.10829546       6.58915062        9       0.00000000      -0.04417141       0.06391926       0.18258383
Ni       7.79878949      -0.00520182       6.53949121        8       1.00000000      -0.03896179       0.02519222      -0.22178090
Pt       1.29383410       2.23435017       6.46789324        8       0.00000000      -0.15125139      -0.07649631       0.64072092
Pt       3.91184159       2.20283897       6.46301888        8       0.00000000       0.16023417       0.01365953       0.47338273
Pt       6.54652687       2.18344886       6.45760852        8       0.00000000      -0.13001057      -0.19313897       0.62734526
Pt       9.10471559       2.30258467       6.50989881        8       0.00000000       0.07442652       0.03822900      -0.07287649
Pt       2.53526966       4.53058158       6.54502994        8       0.00000000       0.11800736      -0.02783790       0.20946661
Pt       5.23979246       4.48267146       6.56665067        9       0.00000000      -0.02388189       0.00488778       0.35153673
Ni       7.87284476       4.49969664       6.44197660        7       1.00000000       0.07322464       0.08057447       0.00565151
Ni      10.36825611       4.54478307       6.52021055        8       1.00000000      -0.15315902       0.10756946      -0.32647181
Pt       3.83042971       6.76370996       6.57505230        9       0.00000000       0.04717509      -0.07897564       0.05179160
Pt       6.63864204       6.70990565       6.49050291        8       0.00000000       0.07613993      -0.09157791       0.32753222
Ni       9.14864007       6.66293654       6.52727071        8       1.00000000       0.05936699      -0.18612971      -0.31133529
Ni      11.67698833       6.70085352       6.53901540        8       1.00000000      -0.12832980      -0.09180638      -0.28646626
