64
Lattice="10.498723587665511 0.01691249620082986 -0.001518664250638007 5.264008445184083 9.10547008581547 -0.04410839657474128 0.0 0.0 21.711918065730874" Properties=species:S:1:pos:R:3:tags:I:1:initial_magmoms:R:1:forces:R:3 unique_id=a75a2d4b6a4c47b7bb93a9a2f83afa19 energy=-385.1546154549416 stress="0.005615606617401063 -0.0001240438962363146 0.00021049640432118722 -0.0001240438962363146 0.005340147995093924 -0.00024445151835664273 0.00021049640432118722 -0.00024445151835664273 -0.0033470834758071496" pbc="T T T"
Ni      -0.06737211      -0.02598074       0.14145536        1       1.00000000      -0.12705936      -0.04387212      -0.10655622
Ni       2.65464243      -0.03442711       0.13584180        1       1.00000000       0.09799433      -0.04824627      -0.16617717
Ni       5.27452621      -0.02986017       0.11673395        1       1.00000000       0.12719766       0.05982075      -0.14712312
Ni       7.90183446      -0.03695200       0.08870061        1       1.00000000      -0.04941372      -0.04701756       0.51565616
Pt       1.28656351       2.29071328       0.07722163        1       0.00000000       0.19220027       0.05564478      -0.92564158
Pt       3.94616112       2.31957871       0.10943963        1       0.00000000       0.00204178       0.14272013      -0.75779982
Pt       6.59992395       2.19983601       0.09152984        1       0.00000000      -0.12844121      -0.13139641      -0.19691342
Ni       9.17741835       2.24670255       0.11615265        1       1.00000000      -0.01490614      -0.13384793      -0.03916329
Ni       2.63802024       4.57026331       0.09335353        1       1.00000000      -0.00090886      -0.06339287      -0.25618994
Ni       5.27463581       4.55743328       0.09704673        1       1.00000000       0.17603109      -0.03976427      -0.08562576
Pt       7.94675059       4.57591193       0.09171486        1       0.00000000      -0.02281337       0.09195928      -0.11217970
Ni      10.51168032       4.60297963       0.00000000        0       1.00000000       0.00205583       0.07581296       0.28214638
Ni       3.92470038       6.86627012       0.11382127        1       1.00000000      -0.03023910       0.09730512      -0.01441618
Pt       6.55395067       6.87395669       0.13875718        1       0.00000000      -0.04851005      -0.01193300      -0.33142333
Ni       9.21712864       6.83987077       0.01241019        0       1.00000000      -0.02699033      -0.05052973       0.41671723
Ni      11.84876472       6.85958857       0.07214334        1       1.00000000       0.13140087       0.07542384      -0.05795346
Pt       1.27508370       0.66825849       2.14786329        2       0.00000000      -0.05347008      -0.13100364       0.20575998
Pt       4.00457865       0.76772542       2.20786807        3       0.00000000       0.04388765      -0.07779678       0.21508166
Ni       6.60715325       0.73870937       2.21921190        3       1.00000000       0.07625982      -0.05336171       0.15223167
Ni       9.12610806       0.72356581       2.15336165        3       1.00000000      -0.10001413       0.00355472       0.05723194
Ni       2.62778088       3.04092668       2.19267389        3       1.00000000      -0.02863658       0.00386089       0.31135051
Ni       5.28286929       3.03277844       2.21658239        3       1.00000000       0.05701471       0.03175631       0.24889356
Pt       7.81557116       3.02478366       2.31072873        4       0.00000000      -0.00062526      -0.02121402       0.22239557
Pt      10.42455770       3.07475501       2.16940245        3       0.00000000      -0.20734600       0.10234961       0.13931911
Pt       3.99778254       5.32205627       2.09090571        2       0.00000000       0.04524696       0.01512755       0.05206503
Ni       6.61228415       5.31203284       2.20302727        3       1.00000000       0.05762994      -0.04671022       0.26122272
Ni       9.16321789       5.34539371       2.24273042        3       1.00000000      -0.04626202       0.02631618       0.17344807
Pt      11.80531587       5.32695381       2.10145846        2       0.00000000       0.01979455      -0.05714935       0.09030360
Ni       5.21779305       7.58316098       2.14344957        2       1.00000000      -0.08241713       0.02094557       0.17909913
Ni       7.90308329       7.51939907       2.17746789        3       1.00000000       0.07610465      -0.08522848       0.20678708
Pt      10.50219974       7.56103159       2.09132132        2       0.00000000      -0.06857026       0.01725128       0.07098526
Ni      13.15325997       7.64672798       2.10629482        2       1.00000000      -0.03157230       0.04469206       0.05152097
Pt      -0.10878749       1.53077615       4.35058742        6       0.00000000      -0.08582735       0.02472088      -0.17710699
Pt       2.64225960       1.50038949       4.34801860        5       0.00000000      -0.05833444      -0.10234966      -0.22421326
Ni       5.30543434       1.51757700       4.35452136        6       1.00000000       0.04180929       0.03329777      -0.30956110
Ni       7.83981970       1.53732585       4.37266285        6       1.00000000      -0.02703082       0.02572884      -0.18470747
Pt       1.23692343       3.83905782       4.38488320        6       0.00000000      -0.07148879       0.06833922      -0.11632463
Pt       4.01562293       3.73893753       4.29268658        5       0.00000000       0.03998332       0.06946968      -0.18177198
Ni       6.60962530       3.76500249       4.38130692        6       1.00000000       0.01151712       0.00971874      -0.25114636
Ni       9.15367487       3.83757490       4.37392074        6       1.00000000      -0.02137899       0.00862201      -0.24478528
Pt       2.60319982       6.07596620       4.34345821        5       0.00000000       0.05300930      -0.03086968      -0.08851824
Pt       5.35424564       6.00001733       4.29856436        5       0.00000000       0.00901987      -0.09401189      -0.12784735
Ni       7.94090508       5.99968872       4.32137998        5       1.00000000       0.05817599      -0.06366976      -0.29068620
Ni      10.43856097       6.03111144       4.40415967        6       1.00000000      -0.02839264      -0.00763472      -0.11089883
Pt       3.92232279       8.35148053       4.27477449        5       0.00000000       0.01880532       0.01004243      -0.09394324
Pt       6.59087287       8.28490562       4.30029435        5       0.00000000      -0.04238816       0.11875086      -0.17785597
Pt       9.21479817       8.23400719       4.35882432        6       0.00000000       0.03667847      -0.00121761      -0.03990134
Pt      11.82179452       8.41826655       4.31957240        5       0.00000000      -0.05627004       0.06083844      -0.03438796
Pt      -0.04690053      -0.02023409       6.71172891        9       0.00000000       0.19820603       0.04252096       0.04496893
Pt       2.64918020      -0.06121057       6.71191807        9       0.00000000      -0.06553253       0.09326819       0.22809554
Pt       5.27613287      -0.04367384       6.69068615        9       0.00000000      -0.06090886       0.15239053       0.00372466
Ni       7.86269831      -0.01335905       6.61998941        8       1.00000000       0.00764189      -0.03058547      -0.29848770
Pt       1.28182667       2.27963120       6.56713381        8       0.00000000       0.04597839      -0.13922715       0.84570952
Pt       3.95781900       2.24930877       6.56222946        8       0.00000000       0.09802129      -0.09724494       0.67953045
Pt       6.59521296       2.22745322       6.48961486        7       0.00000000      -0.01788112       0.11374836       0.34248358
Pt       9.17235808       2.28140825       6.65179528        9       0.00000000      -0.12963292       0.16444684      -0.05389107
Pt       2.59255334       4.54289900       6.68063688        9       0.00000000       0.07373792      -0.01447826       0.14831872
Pt       5.28149914       4.53757314       6.63951494        8       0.00000000       0.12756996      -0.00271658       0.14911483
Pt       7.97205284       4.58273240       6.48212128        7       0.00000000      -0.16654279      -0.10304762       0.18122610
Ni      10.47833905       4.57244641       6.58197534        8       1.00000000       0.02059077      -0.01816168      -0.19637287
Pt       3.89849842       6.84328297       6.68218779        9       0.00000000       0.02274511      -0.09881283      -0.03363165
Pt       6.62281064       6.80055638       6.56602334        8       0.00000000      -0.02036626      -0.03411157       0.36639226
Ni       9.21633325       6.78326016       6.57248559        8       1.00000000      -0.00987623       0.07206698      -0.19247551
Pt      11.73218768       6.78988184       6.65111187        9       0.00000000      -0.03830230      -0.05190797      -0.21610222
