64
Lattice="10.30813926368114 -0.01733765000486725 0.03700767948914256 5.139054786494431 8.814493303697022 -0.016242565601664823 0.030216643770953993 -0.032759225122906785 8.784537365236101" Properties=species:S:1:pos:R:3:tags:I:1:initial_magmoms:R:1:forces:R:3 unique_id=c1077f771e6f441a909ba3adcc1d8a97 stress="0.0001982926205197008 2.2576891481607944e-06 -1.5854806851734884e-05 2.2576891481607944e-06 0.0002110174701053097 2.370909565626878e-05 -1.5854806851734884e-05 2.370909565626878e-05 0.00019351249854379637" energy=-396.4344163004153 pbc="T T T"
Ni       0.01457459       0.00490697       0.17952242        4       1.00000000       0.07838647       0.07038594       0.34278014
Ni       2.57787921       0.00529646       0.21014274        4       1.00000000       0.02006346       0.04033030       0.43911737
Ni       5.15047330      -0.03281634       0.17611595        4       1.00000000      -0.03913549       0.06696615       0.23461310
Ni       7.72913636      -0.07514410       0.21765667        4       1.00000000      -0.01644478      -0.09255043       0.39670389
Ni       1.29230157       2.20947464       0.10431716        4       1.00000000       0.03524814       0.00802079       0.24653240
Pt       3.77510441       2.16021689       0.18410367        4       0.00000000      -0.03864769       0.02442896       0.18082539
Pt       6.43985267       2.11214460       0.11691686        4       0.00000000       0.06252073      -0.08939125      -0.03507431
Pt       9.11299879       2.18993787       0.14021613        4       0.00000000       0.12316702      -0.01877553       0.13864752
Ni       2.52383004       4.42976336       0.04612829        4       1.00000000      -0.04480741       0.02781548       0.01586731
Pt       5.09668764       4.43624829       0.03010493        4       0.00000000      -0.07265530       0.05261861      -0.12590697
Pt       7.77600200       4.44379000       0.03532415        4       0.00000000       0.12668400       0.08978079      -0.15875760
Ni      10.36071173       4.42343652       0.07561067        4       1.00000000       0.12216627       0.09005463       0.02323738
Ni       3.80434065       6.65385484       0.07249943        4       1.00000000      -0.05953149       0.07589001       0.16934332
Pt       6.43515423       6.71429812       0.09294951        4       0.00000000       0.00181398       0.03746027      -0.11169414
Ni       9.04733755       6.63911732       0.06680777        4       1.00000000       0.04071494       0.05495398      -0.03711520
Ni      11.60594197       6.60056648       0.07548985        4       1.00000000       0.11211683      -0.03472566      -0.01513464
Ni       1.32781335       0.73577683       2.22645202        3       1.00000000       0.04544135       0.03818879       0.16568201
Ni       3.83721687       0.74312775       2.25794754        3       1.00000000      -0.08112649       0.13524842       0.15719963
Ni       6.44173814       0.74471388       2.26011562        3       1.00000000      -0.02995195       0.09308421       0.18528215
Pt       9.04199796       0.71358938       2.27139738        3       0.00000000       0.04362730       0.21822447      -0.03616908
Ni       2.55120689       2.87681911       2.26992548        3       1.00000000      -0.04146828      -0.09840018       0.22185462
Ni       5.15566526       2.88751576       2.26942411        3       1.00000000      -0.11019889      -0.07869859       0.01073055
Ni       7.71228887       2.90184698       2.26528541        3       1.00000000       0.04522817      -0.04920022      -0.10040416
Ni      10.35591751       2.88608697       2.28568092        3       1.00000000       0.08349710      -0.09452394       0.17187590
Pt       3.87101251       5.13225114       2.23940580        3       0.00000000       0.00781693      -0.08547108      -0.12123200
Ni       6.44340157       5.13481707       2.22964959        3       1.00000000       0.00592042       0.01106865      -0.09991327
Pt       8.97784662       5.09783388       2.30363448        3       0.00000000      -0.15402222      -0.07329722      -0.07342896
Pt      11.60055034       5.06745754       2.24319567        3       0.00000000      -0.00335974      -0.06985228       0.12531664
Ni       5.18308324       7.35152144       2.20035706        3       1.00000000       0.09360007       0.01137025       0.07356256
Ni       7.68493982       7.36807112       2.22041353        3       1.00000000      -0.11614055       0.01426797       0.06903581
Pt      10.29693786       7.37204886       2.13890176        3       0.00000000      -0.00998185      -0.02941336      -0.06076201
Ni      12.89039791       7.32348163       2.18968058        3       1.00000000       0.01404896      -0.07765171       0.02594127
Ni       0.07669462       1.50199675       4.33292311        2       1.00000000       0.17610789       0.07160555      -0.05553949
Ni       2.54669475       1.48900843       4.32307841        2       1.00000000      -0.06338961       0.05336093      -0.06574855
Ni       5.15291350       1.46342004       4.33301658        2       1.00000000      -0.13278288      -0.04107093      -0.12372804
Ni       7.74258432       1.46248659       4.36451440        2       1.00000000       0.04315680      -0.06687438      -0.04301881
Ni       1.29692328       3.64344010       4.38729860        2       1.00000000       0.00375272      -0.01912324      -0.00490684
Ni       3.82616605       3.64946029       4.33502751        2       1.00000000      -0.11733925      -0.09121144      -0.13504580
Pt       6.48508048       3.60234342       4.35212161        2       0.00000000       0.02633521      -0.09575514      -0.15848897
Ni       9.06888188       3.66814478       4.36578365        2       1.00000000       0.14881531      -0.07215648      -0.09797282
Ni       2.55500251       5.80375511       4.40825036        2       1.00000000      -0.06027757      -0.11751492       0.06532739
Pt       5.19488169       5.84912364       4.39814882        2       0.00000000       0.09864316       0.02059241      -0.06679810
Ni       7.75155356       5.84118795       4.40364241        2       1.00000000       0.00763854       0.00009717      -0.02596971
Ni      10.31187934       5.79017738       4.44534325        2       1.00000000       0.02838422      -0.05847955       0.07070384
Pt       3.89846927       8.06347430       4.31596954        2       0.00000000      -0.02503627      -0.01773464       0.17057900
Ni       6.45257186       8.08286340       4.31139453        2       1.00000000      -0.02550326       0.13645569      -0.12476797
Pt       8.95058415       8.04732499       4.31226735        2       0.00000000      -0.05390021       0.05572299       0.11894061
Pt      11.59830682       8.02841998       4.32577235        2       0.00000000       0.00109487      -0.04501644       0.10175688
Pt       0.03867079      -0.05577187       6.54783789        1       0.00000000       0.01657643      -0.03522160       0.16926140
Pt       2.57656107      -0.06427517       6.56017439        1       0.00000000      -0.07858321      -0.02958560       0.21529246
Pt       5.16755400      -0.07509756       6.58502849        1       0.00000000       0.01072249      -0.08798052       0.04872229
Pt       7.74496321      -0.07908302       6.61312484        1       0.00000000      -0.10864825      -0.07069587       0.22613026
Ni       1.30400693       2.23950755       6.47619791        1       1.00000000      -0.01537484       0.16182155      -0.20649301
Pt       3.86303818       2.26875604       6.41512606        1       0.00000000      -0.04845310       0.14666232      -0.20104930
Ni       6.45974430       2.20013775       6.45018474        1       1.00000000      -0.01846202       0.02671947      -0.24049598
Pt       9.05198759       2.26429391       6.41259728        1       0.00000000      -0.02152469       0.14334943      -0.33804372
Ni       2.55353425       4.41565757       6.47391617        1       1.00000000      -0.12852436       0.05832601      -0.22378366
Ni       5.17380814       4.39790426       6.43148074        1       1.00000000       0.02353412       0.01644742      -0.32247708
Ni       7.74481005       4.41678388       6.41590487        1       1.00000000       0.01584636       0.10491905      -0.37643502
Ni      10.35101878       4.40838791       6.49805549        1       1.00000000       0.07502893       0.07653187      -0.20852792
Ni       3.85471540       6.51496415       6.50954027        1       1.00000000      -0.08865704      -0.17636136      -0.05958348
Ni       6.47130719       6.52716608       6.43740864        1       1.00000000       0.10821171      -0.04734727      -0.15504149
Ni       9.03293730       6.49603532       6.50245003        1       1.00000000       0.00816805      -0.16475526      -0.20688966
Ni      11.60188913       6.48944227       6.52333582        1       1.00000000      -0.05015028      -0.10393448      -0.16446531
