103
Lattice="13.791587736635215 -1.8112103385096306e-07 5.378664298030767e-07 6.895793711462199 11.943865620083509 -5.369412600478491e-07 0.0 0.0 37.15138878154366" Properties=species:S:1:pos:R:3:tags:I:1:initial_magmoms:R:1:forces:R:3 energy=-593.0447387695312 free_energy=-593.0447387695312 stress="0.00833386581059264 -1.36783764886995e-05 -1.1176275208980694e-05 -1.36783764886995e-05 0.00834748631426362 -1.120083162907437e-05 -1.1176275208980694e-05 -1.120083162907437e-05 0.0013436691789424598" pbc="T T T"
Pt       0.00000009       0.00000010       0.00000050        0       0.00000000      -0.00361211      -0.00191947       0.12666726
Pt       2.75831763       0.00000006       0.00000053        0       0.00000000      -0.00703922      -0.00114927       0.12229815
Pt       5.51663515      -0.00000014       0.00000071        0       0.00000000      -0.00127738       0.00168908       0.13263124
Pt       8.27495278      -0.00000004       0.00000082        0       0.00000000       0.00587812      -0.00022794       0.12631539
Pt      11.03327025      -0.00000010       0.00000087        0       0.00000000       0.00410090      -0.00260188       0.12377620
Pt       1.37915882       2.38877325       0.00000031        0       0.00000000      -0.00379748      -0.00497871       0.12328511
Pt       4.13747636       2.38877307       0.00000042        0       0.00000000      -0.00432877      -0.00270506       0.14460731
Pt       6.89579384       2.38877307       0.00000072        0       0.00000000       0.00301731      -0.00275236       0.14665467
Pt       9.65411145       2.38877301       0.00000079        0       0.00000000       0.00306100      -0.00464821       0.12702239
Pt      12.41242897       2.38877302       0.00000074        0       0.00000000       0.00060182      -0.00097063       0.12852341
Pt       2.75831757       4.77754637       0.00000030        0       0.00000000       0.00074695      -0.00163264       0.13161868
Pt       5.51663503       4.77754616       0.00000039        0       0.00000000      -0.00114515       0.00457196       0.14417621
Pt       8.27495256       4.77754613       0.00000040        0       0.00000000      -0.00095074      -0.00023972       0.13410503
Pt      11.03327011       4.77754616       0.00000064        0       0.00000000      -0.00198963      -0.00177527       0.13360825
Pt      13.79158766       4.77754604       0.00000062        0       0.00000000       0.00135108      -0.00102335       0.13369516
Pt       4.13747629       7.16631935       0.00000003        0       0.00000000       0.00271442       0.00477392       0.12628031
Pt       6.89579371       7.16631933       0.00000023        0       0.00000000      -0.00216464       0.00495796       0.12787199
Pt       9.65411137       7.16631934       0.00000033        0       0.00000000      -0.00279189      -0.00135073       0.13506413
Pt      12.41242886       7.16631934       0.00000052        0       0.00000000      -0.00045327      -0.00018051       0.13246790
Pt      15.17074637       7.16631925       0.00000049        0       0.00000000       0.00114967      -0.00156007       0.13313022
Pt       5.51663495       9.55509252       0.00000000        0       0.00000000       0.00013682       0.00453721       0.12420920
Pt       8.27495257       9.55509239       0.00000014        0       0.00000000      -0.00061608       0.00184277       0.12788528
Pt      11.03327014       9.55509235       0.00000017        0       0.00000000      -0.00037807       0.00183220       0.13390967
Pt      13.79158763       9.55509238       0.00000047        0       0.00000000      -0.00089299       0.00179508       0.13337237
Pt      16.54990513       9.55509229       0.00000038        0       0.00000000       0.00001117       0.00007962       0.13179898
Pt       1.37915871       0.79625751       2.38854620        1       0.00000000       0.03143404       0.01687111      -0.15012789
Pt       4.13747621       0.79625759       2.38854657        1       0.00000000       0.02896904       0.04870157      -0.10142504
Pt       6.89579369       0.79625747       2.38854643        1       0.00000000      -0.01474651       0.06109203      -0.07545612
Pt       9.65411133       0.79625730       2.38854679        1       0.00000000      -0.03579560       0.01944074      -0.14786999
Pt      12.41242891       0.79625740       2.38854668        1       0.00000000      -0.00109274       0.00102405      -0.16185045
Pt       2.75831728       3.18503037       2.38854627        1       0.00000000       0.05394897      -0.00288856      -0.10617777
Pt       5.51663489       3.18503067       2.38854644        1       0.00000000       0.00797418       0.00014666       0.08987387
Pt       8.27495261       3.18503085       2.38854636        1       0.00000000      -0.04962479      -0.00789746      -0.07138725
Pt      11.03327032       3.18503042       2.38854670        1       0.00000000      -0.01350631       0.01424477      -0.15907052
Pt      13.79158776       3.18503064       2.38854676        1       0.00000000       0.00681703       0.00852037      -0.16155523
Pt       4.13747609       5.57380380       2.38854634        1       0.00000000       0.04485638      -0.04041271      -0.08332428
Pt       6.89579384       5.57380384       2.38854617        1       0.00000000      -0.02648249      -0.03619878      -0.06812119
Pt       9.65411142       5.57380378       2.38854628        1       0.00000000      -0.01667321      -0.00649093      -0.14227769
Pt      12.41242912       5.57380366       2.38854642        1       0.00000000      -0.00007359       0.00317509      -0.15070431
Pt      15.17074656       5.57380372       2.38854658        1       0.00000000       0.00785916      -0.00217157      -0.16917722
Pt       5.51663498       7.96257672       2.38854615        1       0.00000000       0.00166331      -0.04051941      -0.14459531
Pt       8.27495261       7.96257687       2.38854597        1       0.00000000       0.00406383      -0.02430623      -0.14899427
Pt      11.03327016       7.96257699       2.38854653        1       0.00000000       0.00262089      -0.00162452      -0.15103778
Pt      13.79158772       7.96257660       2.38854616        1       0.00000000      -0.00141467      -0.00036257      -0.14822352
Pt      16.54990518       7.96257671       2.38854636        1       0.00000000       0.00051887      -0.00806102      -0.16354945
Pt       6.89579364      10.35134986       2.38854591        1       0.00000000       0.00125905      -0.00359996      -0.16074575
Pt       9.65411124      10.35134989       2.38854587        1       0.00000000       0.01103208       0.00045626      -0.16028842
Pt      12.41242889      10.35134988       2.38854639        1       0.00000000       0.00297802       0.00798823      -0.16846775
Pt      15.17074648      10.35134982       2.38854620        1       0.00000000      -0.00713547       0.00579458      -0.16245459
Pt      17.92906403      10.35134982       2.38854660        1       0.00000000      -0.00015126       0.00073583      -0.15935405
Pt       0.00217650       1.59243799       4.72275651        2       0.00000000      -0.00353696       0.00073191       0.00153331
Pt       2.76903535       1.59748175       4.74550904        2       0.00000000      -0.00591471      -0.00336004       0.00016456
Pt       5.52381362       1.60632215       4.78293586        2       0.00000000      -0.00234782       0.00068691       0.00469254
Pt       8.26600795       1.60046403       4.75741333        2       0.00000000       0.00170647      -0.00091080      -0.00158957
Pt      11.03629765       1.59281228       4.72115056        2       0.00000000      -0.00023404       0.00129135      -0.00306156
Pt       1.38372647       3.98341108       4.72445118        2       0.00000000       0.00076210      -0.00032628       0.00198740
Pt       4.15190548       3.97863111       4.77794317        2       0.00000000      -0.00053921      -0.00225833       0.00517123
Pt       6.88945692       3.97737578       4.78321629        2       0.00000000      -0.00014074       0.00020484       0.00219086
Pt       9.65148158       3.98614768       4.73315640        2       0.00000000      -0.00191995      -0.00173037       0.00095937
Pt      12.41398130       3.98206967       4.72806967        2       0.00000000       0.00058019       0.00039952      -0.00040226
Pt       2.76054076       6.36995352       4.72457889        2       0.00000000       0.00025201      -0.00099941      -0.00007264
Pt       5.51885628       6.35937925       4.75584205        2       0.00000000      -0.00010205       0.00214411      -0.00134531
Pt       8.27784300       6.36272908       4.73718718        2       0.00000000      -0.00254931      -0.00065167       0.00084205
Pt      11.03718018       6.37199346       4.73032707        2       0.00000000      -0.00007373      -0.00023952      -0.00131428
Pt      13.79376548       6.37152192       4.73033642        2       0.00000000       0.00155582       0.00062342      -0.00080653
Pt       4.14078786       8.76103206       4.72350021        2       0.00000000       0.00138696       0.00101350      -0.00145896
Pt       6.89793574       8.75979569       4.72250194        2       0.00000000       0.00112640      -0.00045045      -0.00331192
Pt       9.65524784       8.75841764       4.72820327        2       0.00000000       0.00077200       0.00016930      -0.00048643
Pt      12.41460498       8.75969490       4.73051112        2       0.00000000       0.00140138       0.00088510      -0.00096941
Pt      15.17355581       8.76069317       4.72822756        2       0.00000000      -0.00178144      -0.00120990      -0.00001140
Pt       5.51892893      11.14832831       4.72710199        2       0.00000000       0.00228162       0.00132278      -0.00103495
Pt       8.27625346      11.14783118       4.72293822        2       0.00000000      -0.00102431      -0.00332069       0.00144064
Pt      11.03769818      11.14973982       4.72452102        2       0.00000000       0.00010750       0.00074060       0.00186314
Pt      13.79236918      11.14948950       4.72524143        2       0.00000000      -0.00066273       0.00061284      -0.00040893
Pt      16.55281408      11.15003657       4.72391942        2       0.00000000       0.00141939       0.00083232      -0.00158764
Pt      -0.00373724      -0.00262895       7.08904314        3       0.00000000      -0.00191140      -0.00077146      -0.00123248
Pt       2.73447879      -0.03736573       7.08041602        3       0.00000000      -0.01047728      -0.01257387      -0.00061783
Pt       5.52049804      -0.01442439       7.07530138        3       0.00000000      -0.00345028      -0.00216754       0.00004840
Pt       8.30564061      -0.03116335       7.07862405        3       0.00000000       0.00080954      -0.00309172       0.00023493
Pt      11.04811926      -0.00354624       7.08840069        3       0.00000000      -0.00088007      -0.00152276      -0.00030297
Pt       1.33734736       2.38590218       7.08022385        3       0.00000000      -0.01629868      -0.00246456      -0.00037399
Pt       4.01174243       2.31289573       7.15337830        3       0.00000000       0.00684437       0.00428051       0.00788238
Pt       7.01792098       2.32710589       7.20322928        3       0.00000000       0.00716582      -0.00817883      -0.00720525
Pt       9.71518357       2.37896128       7.06862060        3       0.00000000      -0.00397376      -0.00114794      -0.00067717
Pt      12.42133549       2.39037022       7.08755383        3       0.00000000      -0.00630205       0.00011751      -0.00060767
Pt       2.75210223       4.78742990       7.07260799        3       0.00000000      -0.00362543      -0.00182455       0.00034133
Pt       5.52093194       4.92233692       7.19312665        3       0.00000000      -0.00296505       0.01088297      -0.00658845
Pt       8.29290184       4.78641139       7.10767616        3       0.00000000      -0.00769162      -0.00423174       0.00604568
Pt      11.04922667       4.78580659       7.08899253        3       0.00000000      -0.00309472       0.00079634      -0.00095820
Pt      13.78935703       4.78562359       7.08749063        3       0.00000000      -0.00407580       0.00177294       0.00003129
Pt       4.12324649       7.21364297       7.07881293        3       0.00000000      -0.00255682       0.00269898       0.00059855
Pt       6.91688678       7.22201027       7.07616340        3       0.00000000      -0.00307664      -0.00131131      -0.00137031
Pt       9.67013699       7.17492940       7.09010367        3       0.00000000      -0.00100308      -0.00294137      -0.00106740
Pt      12.41806708       7.16878069       7.09241857        3       0.00000000      -0.00241736      -0.00112553       0.00053391
Pt      15.16720826       7.17327379       7.08767242        3       0.00000000      -0.00032320       0.00074648       0.00022852
Pt       5.52098607       9.57018152       7.08921773        3       0.00000000      -0.00207449       0.00066151      -0.00013709
Pt       8.28010575       9.55976661       7.08852325        3       0.00000000      -0.00305846      -0.00480478      -0.00049710
Pt      11.03866580       9.54688107       7.08810254        3       0.00000000      -0.00063899      -0.00414370      -0.00029024
Pt      13.79573177       9.54903567       7.08830152        3       0.00000000       0.00040217      -0.00034420      -0.00020596
Pt      16.55371467       9.55909077       7.08800354        3       0.00000000      -0.00101813      -0.00001970      -0.00108281
O        5.52703122       3.20360347       8.22153380        0       0.00000000      -0.02818185      -0.01684520      -0.03753161
O        6.57887346       3.67558554      10.25123301        0       0.00000000       0.04188681       0.01956610      -0.01399446
H        7.30523951       3.81167480       9.60124138        0       0.00000000       0.02883136       0.02176455      -0.00279981
