103
Lattice="13.791587736635215 -1.8112103385096306e-07 5.378664298030767e-07 6.895793711462199 11.943865620083509 -5.369412600478491e-07 0.0 0.0 37.15138878154366" Properties=species:S:1:pos:R:3:tags:I:1:initial_magmoms:R:1:forces:R:3 energy=-593.314453125 free_energy=-593.314453125 stress="0.009268619563891953 -2.2057492634615443e-05 -6.927959310620449e-05 -2.2057492634615443e-05 0.009249618864544971 0.0001001590486871659 -6.927959310620449e-05 0.0001001590486871659 0.00129283401207785" pbc="T T T"
Pt       0.00000009       0.00000010       0.00000050        0       0.00000000      -0.00334988      -0.00457140       0.12300435
Pt       2.75831763       0.00000006       0.00000053        0       0.00000000      -0.00096334      -0.00120922       0.13596955
Pt       5.51663515      -0.00000014       0.00000071        0       0.00000000       0.00447188      -0.00163408       0.13740933
Pt       8.27495278      -0.00000004       0.00000082        0       0.00000000       0.00497639      -0.00485106       0.12604794
Pt      11.03327025      -0.00000010       0.00000087        0       0.00000000       0.00071954      -0.00181344       0.13236740
Pt       1.37915882       2.38877325       0.00000031        0       0.00000000       0.00045924      -0.00479614       0.13201323
Pt       4.13747636       2.38877307       0.00000042        0       0.00000000       0.00063232      -0.00013300       0.14597961
Pt       6.89579384       2.38877307       0.00000072        0       0.00000000       0.00198124      -0.00312500       0.13051325
Pt       9.65411145       2.38877301       0.00000079        0       0.00000000      -0.00027165      -0.00170774       0.13189888
Pt      12.41242897       2.38877302       0.00000074        0       0.00000000       0.00310987      -0.00143876       0.13382593
Pt       2.75831757       4.77754637       0.00000030        0       0.00000000       0.00398301       0.00049979       0.13218156
Pt       5.51663503       4.77754616       0.00000039        0       0.00000000      -0.00079536       0.00100033       0.13304928
Pt       8.27495256       4.77754613       0.00000040        0       0.00000000       0.00024643      -0.00245157       0.13333252
Pt      11.03327011       4.77754616       0.00000064        0       0.00000000       0.00104415      -0.00155551       0.13171321
Pt      13.79158766       4.77754604       0.00000062        0       0.00000000       0.00145046      -0.00132959       0.13116425
Pt       4.13747629       7.16631935       0.00000003        0       0.00000000       0.00163359       0.00430721       0.12210596
Pt       6.89579371       7.16631933       0.00000023        0       0.00000000       0.00014585      -0.00183283       0.13108426
Pt       9.65411137       7.16631934       0.00000033        0       0.00000000       0.00125080      -0.00056130       0.13346666
Pt      12.41242886       7.16631934       0.00000052        0       0.00000000       0.00127478      -0.00137486       0.13140905
Pt      15.17074637       7.16631925       0.00000049        0       0.00000000       0.00172963      -0.00238594       0.13444835
Pt       5.51663495       9.55509252       0.00000000        0       0.00000000       0.00109256      -0.00171057       0.13157558
Pt       8.27495257       9.55509239       0.00000014        0       0.00000000      -0.00029290      -0.00118118       0.12910125
Pt      11.03327014       9.55509235       0.00000017        0       0.00000000      -0.00024488      -0.00077749       0.13216722
Pt      13.79158763       9.55509238       0.00000047        0       0.00000000       0.00150622       0.00068183       0.13408843
Pt      16.54990513       9.55509229       0.00000038        0       0.00000000       0.00350360      -0.00296886       0.12863892
Pt       1.37915871       0.79625751       2.38854620        1       0.00000000       0.02216102       0.02029144      -0.13985321
Pt       4.13747621       0.79625759       2.38854657        1       0.00000000       0.00016033       0.03942530      -0.04527203
Pt       6.89579369       0.79625747       2.38854643        1       0.00000000      -0.03630781       0.00338874      -0.11595601
Pt       9.65411133       0.79625730       2.38854679        1       0.00000000      -0.01287888       0.00487197      -0.14420548
Pt      12.41242891       0.79625740       2.38854668        1       0.00000000       0.00031923       0.00617742      -0.14313847
Pt       2.75831728       3.18503037       2.38854627        1       0.00000000       0.04024213      -0.02117378      -0.07187080
Pt       5.51663489       3.18503067       2.38854644        1       0.00000000      -0.04380739      -0.01627434      -0.06877004
Pt       8.27495261       3.18503085       2.38854636        1       0.00000000      -0.01101845       0.00797038      -0.15579244
Pt      11.03327032       3.18503042       2.38854670        1       0.00000000      -0.00583270       0.00737170      -0.14572446
Pt      13.79158776       3.18503064       2.38854676        1       0.00000000      -0.00569813       0.00298169      -0.15758672
Pt       4.13747609       5.57380380       2.38854634        1       0.00000000      -0.00321292      -0.02293338      -0.14026654
Pt       6.89579384       5.57380384       2.38854617        1       0.00000000      -0.00775005      -0.00112059      -0.14671728
Pt       9.65411142       5.57380378       2.38854628        1       0.00000000      -0.00668859       0.00732065      -0.14170456
Pt      12.41242912       5.57380366       2.38854642        1       0.00000000      -0.00525205       0.00758484      -0.13605216
Pt      15.17074656       5.57380372       2.38854658        1       0.00000000      -0.00453509       0.00935801      -0.16263820
Pt       5.51663498       7.96257672       2.38854615        1       0.00000000      -0.00813806       0.00147126      -0.14040168
Pt       8.27495261       7.96257687       2.38854597        1       0.00000000      -0.00162465       0.00785949      -0.14282572
Pt      11.03327016       7.96257699       2.38854653        1       0.00000000      -0.00723857       0.00996569      -0.14233899
Pt      13.79158772       7.96257660       2.38854616        1       0.00000000      -0.00439984       0.01007845      -0.14890003
Pt      16.54990518       7.96257671       2.38854636        1       0.00000000      -0.00529844       0.00743195      -0.14020668
Pt       6.89579364      10.35134986       2.38854591        1       0.00000000       0.00218017       0.01296269      -0.13788056
Pt       9.65411124      10.35134989       2.38854587        1       0.00000000       0.00817685       0.01499552      -0.14301777
Pt      12.41242889      10.35134988       2.38854639        1       0.00000000      -0.00314802       0.02911958      -0.11804709
Pt      15.17074648      10.35134982       2.38854620        1       0.00000000      -0.02078976       0.01798150      -0.13149008
Pt      17.92906403      10.35134982       2.38854660        1       0.00000000      -0.00965174       0.00801204      -0.14193738
Pt      -0.00543333       1.60087507       4.72820748        2       0.00000000       0.00164222      -0.00139732       0.00035083
Pt       2.76329223       1.61448619       4.76642380        2       0.00000000       0.00093132      -0.00049646       0.00290515
Pt       5.49146505       1.60930490       4.76904926        2       0.00000000       0.00068897      -0.00055842      -0.00049596
Pt       8.26583973       1.60468470       4.72803901        2       0.00000000       0.00090843      -0.00130904       0.00075696
Pt      11.02621264       1.60089381       4.72972624        2       0.00000000       0.00129795      -0.00161134      -0.00036015
Pt       1.36507191       3.99479528       4.72486294        2       0.00000000       0.00154845      -0.00169675       0.00169194
Pt       4.12796775       3.97418461       4.76595054        2       0.00000000       0.00069720      -0.00102536       0.00433912
Pt       6.89160078       3.99026343       4.73233831        2       0.00000000       0.00056717      -0.00129985       0.00100514
Pt       9.64906512       3.99235017       4.73109577        2       0.00000000       0.00084694      -0.00167326       0.00015351
Pt      12.40305864       3.99096005       4.73173033        2       0.00000000       0.00136184      -0.00193555      -0.00067160
Pt       2.75236576       6.37983856       4.72663395        2       0.00000000       0.00047749      -0.00178836       0.00014514
Pt       5.50632833       6.37781253       4.72758900        2       0.00000000       0.00073947      -0.00172788       0.00034501
Pt       8.26652626       6.38139914       4.73110756        2       0.00000000       0.00108752      -0.00158460      -0.00037496
Pt      11.02461923       6.37982219       4.73275857        2       0.00000000       0.00102349      -0.00140022      -0.00065933
Pt      13.78314146       6.38148856       4.73182008        2       0.00000000       0.00071817      -0.00180536      -0.00045809
Pt       4.12878951       8.76988137       4.73058461        2       0.00000000       0.00091784      -0.00191078      -0.00044602
Pt       6.88683531       8.76919789       4.72927216        2       0.00000000       0.00143452      -0.00144438      -0.00042506
Pt       9.64584277       8.76925863       4.73133639        2       0.00000000       0.00107966      -0.00116637      -0.00034034
Pt      12.40490530       8.76403178       4.72959560        2       0.00000000       0.00091683      -0.00078714       0.00042705
Pt      15.16208365       8.77175623       4.72996550        2       0.00000000       0.00085170      -0.00178559      -0.00061920
Pt       5.50810310      11.15651113       4.73017174        2       0.00000000       0.00173527      -0.00168525      -0.00037929
Pt       8.26988108      11.16059298       4.72768957        2       0.00000000       0.00149573      -0.00069814       0.00107278
Pt      11.03304024      11.15645145       4.74401207        2       0.00000000       0.00037691      -0.00097483      -0.00052825
Pt      13.77544229      11.16538827       4.74583979        2       0.00000000       0.00179042      -0.00138183      -0.00098822
Pt      16.54020586      11.15760534       4.73019188        2       0.00000000       0.00167376      -0.00153297       0.00015542
Pt      -0.02058298       0.01464906       7.08661186        3       0.00000000       0.00204150      -0.00279712       0.00058031
Pt       2.72293935      -0.00806080       7.07468019        3       0.00000000       0.00185510      -0.00127929       0.00235087
Pt       5.50520286       0.01213716       7.11937259        3       0.00000000       0.00133875      -0.00354795      -0.00523573
Pt       8.27220470       0.01506653       7.08479986        3       0.00000000       0.00128716      -0.00179322       0.00026384
Pt      11.02109043       0.01592284       7.09019369        3       0.00000000       0.00188863      -0.00280130      -0.00045568
Pt       1.34216030       2.40850359       7.07654225        3       0.00000000       0.00031768      -0.00130594       0.00299764
Pt       4.11942499       2.41165631       7.21467795        3       0.00000000       0.00210077      -0.00266269       0.00401154
Pt       6.90655750       2.40772036       7.07767083        3       0.00000000       0.00086492      -0.00152771       0.00060520
Pt       9.64951977       2.40669936       7.08894916        3       0.00000000       0.00115817      -0.00247630       0.00042531
Pt      12.39042937       2.40686732       7.09008637        3       0.00000000       0.00080871      -0.00337301      -0.00037223
Pt       2.72810282       4.81572758       7.07156670        3       0.00000000       0.00046369      -0.00013627       0.00303629
Pt       5.51267848       4.81905506       7.07775947        3       0.00000000       0.00197336      -0.00111570       0.00276887
Pt       8.26580592       4.79777749       7.08918781        3       0.00000000       0.00237375      -0.00240636       0.00038892
Pt      11.02000366       4.79607931       7.09290554        3       0.00000000       0.00229235      -0.00260372      -0.00096786
Pt      13.77310150       4.79685036       7.08996390        3       0.00000000       0.00062125      -0.00162347      -0.00007677
Pt       4.12235094       7.18822035       7.08720440        3       0.00000000       0.00191838      -0.00145216      -0.00019890
Pt       6.88446680       7.19023890       7.08952729        3       0.00000000       0.00302895      -0.00199186      -0.00073856
Pt       9.63999686       7.18035463       7.09174378        3       0.00000000       0.00208091      -0.00252235      -0.00063002
Pt      12.39673818       7.18389302       7.09267359        3       0.00000000       0.00162406      -0.00172127      -0.00085017
Pt      15.15150396       7.19076351       7.08911389        3       0.00000000       0.00131089      -0.00064015       0.00000092
Pt       5.50036503       9.57177070       7.09048217        3       0.00000000       0.00233648      -0.00274647      -0.00127375
Pt       8.25515402       9.56332716       7.08847314        3       0.00000000       0.00283483      -0.00164060       0.00026810
Pt      11.01628376       9.56382950       7.08934977        3       0.00000000       0.00101450      -0.00273536       0.00059468
Pt      13.77862123       9.56622133       7.08820674        3       0.00000000       0.00217416      -0.00186250       0.00022095
Pt      16.53525470       9.57315773       7.08971454        3       0.00000000       0.00155984      -0.00157323      -0.00015873
O        4.12774109       2.45963611       9.20468897        0       0.00000000       0.01220691      -0.01397002       0.00588304
O        4.99025626       1.53124054       9.88356657        0       0.00000000       0.02088690      -0.03091037      -0.02206105
H        5.36586331       0.97242169       9.12567890        0       0.00000000      -0.00043392      -0.00830427       0.00606040
