64
Lattice="10.598760906633565 -0.02131070359311639 -0.03451194416793105 5.2809248426326265 9.194041257477721 -0.014207955140903488 -0.0281788844142842 0.002873697932814202 9.18337024630691" Properties=species:S:1:pos:R:3:tags:I:1:initial_magmoms:R:1:forces:R:3 unique_id=ee06673575824a379398e5477d19a078 stress="0.00021716286509777805 -1.7298285173184555e-06 -6.337142031410857e-06 -1.7298285173184555e-06 0.00021700619358411277 -8.24292278848566e-06 -6.337142031410857e-06 -8.24292278848566e-06 0.00018480697853261174" energy=-417.3275754205499 pbc="T T T"
Pt      -0.02762303      -0.00042743       0.11569150        4       0.00000000      -0.06537814       0.00118205       0.08973138
Pt       2.63345394      -0.00099661       0.10806293        4       0.00000000      -0.02113267      -0.00542709       0.16345535
Pt       5.32262606       0.00930064       0.07300498        4       0.00000000       0.00306122      -0.01682623       0.06020486
Pt       7.95973722       0.02557645       0.06624819        4       0.00000000       0.00476875       0.20206684       0.02292787
Pt       1.26361314       2.33184420       0.11447845        4       0.00000000      -0.11652739       0.12072594       0.11883858
Pt       4.01823469       2.31647072       0.10160991        4       0.00000000       0.06796324      -0.01696694       0.09711925
Ni       6.64280032       2.31359373       0.03116557        4       1.00000000       0.15040612       0.12621628       0.18462162
Ni       9.24470815       2.30826168       0.07349984        4       1.00000000      -0.14362664       0.14574889       0.22661335
Pt       2.65371080       4.63269835       0.02357562        4       0.00000000       0.09522637       0.04601429      -0.14293420
Pt       5.31661944       4.57664747       0.03774150        4       0.00000000       0.15075418      -0.06417620      -0.05776252
Ni       7.94252820       4.54888442       0.07488204        4       1.00000000       0.01496681      -0.19760187       0.21233332
Ni      10.56854943       4.56644518       0.07153868        4       1.00000000      -0.11918528      -0.08864488       0.34572922
Ni       3.95796050       6.88351004       0.03259983        4       1.00000000       0.00666032      -0.02778837       0.16043021
Pt       6.58389153       6.85074211       0.07718076        4       0.00000000      -0.02826221      -0.07712251       0.11463092
Pt       9.25720181       6.81051379       0.06638013        4       0.00000000      -0.03723464      -0.18868517       0.13466960
Pt      11.93284646       6.85688230      -0.02660730        4       0.00000000       0.03467319       0.04860157      -0.15793634
Ni       1.30709315       0.76536916       2.32991313        3       1.00000000      -0.06244324      -0.00280587       0.14958411
Pt       3.95321771       0.79347237       2.33359811        3       0.00000000       0.04031793       0.02833086       0.06413053
Pt       6.62259483       0.80364998       2.33649255        3       0.00000000       0.07063814      -0.06534525       0.12392587
Pt       9.29470948       0.78193234       2.33062100        3       0.00000000       0.02361955       0.02468287       0.13922770
Pt       2.67589353       3.08412698       2.32347532        3       0.00000000       0.10401521       0.13553010       0.01136347
Ni       5.29380391       3.07298659       2.29879715        3       1.00000000       0.01171870       0.04482869       0.12642070
Pt       7.89858913       3.05475541       2.29467099        3       0.00000000      -0.08626039      -0.02466157       0.14715200
Pt      10.56952973       3.02650444       2.29469042        3       0.00000000      -0.00489738       0.00731132       0.19041475
Ni       3.96937714       5.35430927       2.28857131        3       1.00000000       0.03951688      -0.02207418       0.03516408
Pt       6.56564749       5.29895779       2.33801908        3       0.00000000      -0.11821032      -0.11578756       0.19717996
Pt       9.23096920       5.31735050       2.30112581        3       0.00000000      -0.10654995      -0.01046418       0.21336685
Pt      11.92590085       5.32708034       2.26261821        3       0.00000000       0.04159319       0.01978137       0.01647466
Pt       5.27028086       7.64958954       2.32684276        3       0.00000000      -0.01621715      -0.04921969       0.05918277
Pt       7.88557849       7.66067690       2.36635734        3       0.00000000      -0.11883303      -0.10537413       0.17954225
Pt      10.59312821       7.65645365       2.32093369        3       0.00000000       0.06193773       0.01077955       0.04663611
Pt      13.25485761       7.61648237       2.27929918        3       0.00000000       0.00115873      -0.05861106       0.01903211
Ni      -0.03834932       1.53549716       4.57282513        2       1.00000000      -0.13665151       0.04481493      -0.06024761
Pt       2.56844964       1.49526967       4.51805137        2       0.00000000      -0.17001384      -0.02164031      -0.07250091
Pt       5.38560130       1.56718818       4.55332008        2       0.00000000       0.19910536       0.19323704       0.02676607
Ni       7.94074231       1.54749409       4.56259075        2       1.00000000       0.13685335       0.19479426      -0.03473933
Pt       1.25940877       3.82099010       4.57464331        2       0.00000000      -0.06789524      -0.00786657      -0.01907616
Pt       4.00569063       3.85040041       4.56237550        2       0.00000000       0.08636802       0.00877736      -0.16267599
Ni       6.63271938       3.81857734       4.56660208        2       1.00000000       0.21476338      -0.01702975      -0.04756411
Ni       9.21759888       3.80119545       4.55126545        2       1.00000000      -0.18382967      -0.07128238      -0.06104250
Pt       2.63022722       6.15913028       4.64642682        2       0.00000000       0.03929726       0.04920771       0.10754540
Pt       5.31536942       6.11398501       4.56372915        2       0.00000000       0.02082067       0.02899461      -0.05244409
Ni       7.91264934       6.09575755       4.55655880        2       1.00000000      -0.02595326      -0.18946240      -0.06373207
Pt      10.55572446       6.10890722       4.54902666        2       0.00000000      -0.05275691      -0.07319669      -0.05252417
Pt       3.94371693       8.47593896       4.55723007        2       0.00000000      -0.00459975       0.04877994      -0.05345961
Ni       6.58457187       8.42766950       4.54850250        2       1.00000000      -0.08753098      -0.00104744      -0.10457156
Pt       9.22317502       8.40007972       4.52877156        2       0.00000000       0.01571571       0.04455087       0.04825766
Ni      11.89904827       8.41918008       4.55508992        2       1.00000000       0.01154750       0.00173300      -0.10455839
Pt      -0.03395355      -0.01608236       6.74327409        1       0.00000000      -0.02330501      -0.01446369      -0.10823701
Pt       2.62495541      -0.00491323       6.75507481        1       0.00000000       0.05249022       0.04423623      -0.09139448
Pt       5.32501555      -0.00765370       6.73425219        1       0.00000000      -0.01259967      -0.01595947      -0.15799020
Pt       7.90684167      -0.03701815       6.70763013        1       0.00000000       0.02769395      -0.08441019      -0.15347481
Pt       1.30195353       2.32393048       6.76730858        1       0.00000000       0.06284523       0.02790458      -0.07802518
Pt       4.00897444       2.36547440       6.76625463        1       0.00000000       0.14596576       0.13955655      -0.11181572
Ni       6.60456225       2.30323142       6.80104696        1       1.00000000       0.04441578       0.02536934      -0.25171693
Pt       9.20199208       2.29000242       6.75629366        1       0.00000000      -0.06057985      -0.00964705      -0.13051141
Ni       2.63797810       4.63229385       6.76771079        1       1.00000000       0.10857512       0.11185301      -0.36363010
Ni       5.26371047       4.59594932       6.75780466        1       1.00000000      -0.04514302       0.04396111      -0.35148481
Pt       7.85807272       4.54403464       6.76083893        1       0.00000000      -0.14369638      -0.09600775      -0.12809985
Pt      10.60194390       4.60572403       6.81182225        1       0.00000000       0.04645471       0.01302222       0.12716386
Ni       3.92240648       6.87152487       6.81449904        1       1.00000000      -0.04814689      -0.10557452      -0.21786301
Pt       6.54880547       6.85420247       6.72929009        1       0.00000000      -0.06772071      -0.05501325      -0.07490897
Pt       9.25150710       6.86560406       6.73747312        1       0.00000000      -0.05101785      -0.07218787      -0.09632249
Ni      11.91672443       6.87345721       6.73011474        1       1.00000000       0.09029066      -0.01022130      -0.39659191
