64
Lattice="10.209306688498986 0.004437568604614477 -0.017563696853210728 5.108496391392122 8.796926004365268 -0.03922764679796851 -0.01434069842909773 -0.028704573982705782 8.733983142238442" Properties=species:S:1:pos:R:3:tags:I:1:initial_magmoms:R:1:forces:R:3 unique_id=7fa65d5550364a348a15556f9792ea07 stress="-5.2118553454424954e-05 8.72550735092532e-07 4.0051854350497945e-06 8.72550735092532e-07 -5.033358723122855e-05 1.8005947446569263e-06 4.0051854350497945e-06 1.8005947446569263e-06 -2.7644431884375764e-05" energy=-393.254694766836 pbc="T T T"
Ni       0.04338190      -0.04260425       0.17703129        4       1.00000000       0.16303254      -0.07276062       0.24984281
Ni       2.53063128      -0.03523624       0.19293610        4       1.00000000      -0.02647409      -0.09730819       0.25767091
Ni       5.09723877      -0.03333880       0.07271961        4       1.00000000      -0.07446270      -0.05124809       0.07976476
Ni       7.64545739      -0.02989470       0.14352627        4       1.00000000       0.01856747       0.05053400       0.27353102
Ni       1.27955046       2.20276283       0.09900241        4       1.00000000       0.00958008       0.01773872       0.27156126
Pt       3.76216833       2.20078525       0.17201345        4       0.00000000      -0.07308910      -0.03575497       0.28093362
Pt       6.37746865       2.21220181       0.07427815        4       0.00000000       0.00190064       0.08239649      -0.01783240
Pt       9.00257136       2.25742712       0.00344157        4       0.00000000       0.07636111       0.01304622      -0.17180992
Ni       2.54792111       4.42170302       0.04472776        4       1.00000000       0.00860819       0.05520711       0.04446011
Ni       5.08794108       4.44669675       0.04708620        4       1.00000000      -0.09077331       0.05973800       0.06456771
Ni       7.67063972       4.44908320       0.04632090        4       1.00000000       0.04982939       0.12164263       0.07502891
Ni      10.21915261       4.43033632       0.02940405        4       1.00000000      -0.00504096       0.16032321       0.01607874
Ni       3.85532081       6.57360865       0.03729994        4       1.00000000       0.10601518      -0.07589986       0.03081736
Ni       6.37791926       6.61142444       0.04718705        4       1.00000000      -0.00168816       0.05212844      -0.02684137
Ni       8.90802762       6.58451448       0.11029428        4       1.00000000      -0.14900631      -0.05196770       0.19230842
Ni      11.48118289       6.58985133      -0.00254782        4       1.00000000      -0.07368575      -0.02153166      -0.09328419
Ni       1.32362795       0.74567589       2.17019508        3       1.00000000       0.09605942       0.12433453       0.05834499
Ni       3.77624863       0.72777071       2.19865655        3       1.00000000      -0.15661963      -0.02515461       0.03031214
Ni       6.35131520       0.74905523       2.16910366        3       1.00000000       0.00462683       0.01513513      -0.04516413
Pt       8.99910650       0.76264057       2.16715573        3       0.00000000       0.09073016       0.06002661      -0.09090835
Ni       2.54406070       2.89861537       2.22588803        3       1.00000000       0.02496167      -0.06048965       0.17749127
Ni       5.07960040       2.94048277       2.20692691        3       1.00000000      -0.06762912       0.06461416       0.00928838
Ni       7.67196505       2.96238996       2.18644082        3       1.00000000       0.08918479       0.06924084       0.00400856
Ni      10.22015959       2.92876642       2.18361119        3       1.00000000      -0.00617962      -0.03603165       0.09475288
Ni       3.84419346       5.08211509       2.16810352        3       1.00000000      -0.00970772      -0.12879237       0.04056920
Pt       6.38225398       5.15606652       2.12286647        3       0.00000000       0.00136881       0.02456269      -0.00367909
Ni       8.91581672       5.10004787       2.16317588        3       1.00000000      -0.00665663      -0.07341115       0.07084093
Pt      11.47258738       5.05930761       2.12223468        3       0.00000000      -0.03078105      -0.07187626      -0.02292732
Ni       5.13850291       7.31243750       2.11515838        3       1.00000000      -0.00338800      -0.04437723      -0.04193677
Ni       7.64003640       7.34322684       2.12426855        3       1.00000000      -0.02116750      -0.02985104      -0.04578325
Pt      10.13122051       7.35556745       2.16176762        3       0.00000000      -0.05195055      -0.01482277       0.02891613
Pt      12.78035785       7.28592983       2.09784410        3       0.00000000       0.06209565      -0.06815614       0.01789402
Ni       0.02562427       1.47715404       4.34803833        2       1.00000000       0.10396297      -0.07037667      -0.01994907
Ni       2.52479568       1.45888129       4.28735722        2       1.00000000       0.00459572      -0.02756291      -0.05039309
Pt       5.04739256       1.40080550       4.25393604        2       0.00000000      -0.13297030       0.02639530       0.04924958
Pt       7.68334121       1.49403933       4.31979363        2       0.00000000      -0.00055972      -0.05261009       0.00228673
Pt       1.26873785       3.64049153       4.37553078        2       0.00000000       0.01184420      -0.03514905       0.02355451
Ni       3.80753598       3.70976629       4.29042795        2       1.00000000      -0.02307472       0.08578310      -0.16011105
Pt       6.36375428       3.73535932       4.35578233        2       0.00000000      -0.01827913       0.03540091      -0.03028653
Ni       8.94829986       3.70554622       4.31855548        2       1.00000000       0.01786804       0.16514146      -0.14767585
Ni       2.54258569       5.81741673       4.36492472        2       1.00000000      -0.04854293      -0.07521848      -0.05862017
Ni       5.07221349       5.82665212       4.34270034        2       1.00000000      -0.06421347      -0.00696914      -0.08038472
Ni       7.69592467       5.84619010       4.30516103        2       1.00000000       0.16712340       0.00578555      -0.13278390
Ni      10.20093009       5.85282810       4.31065591        2       1.00000000       0.01322882      -0.05594724      -0.10644740
Pt       3.81917008       7.95844501       4.31452946        2       0.00000000      -0.02950894      -0.01660064       0.13796627
Pt       6.43818180       8.02103056       4.21414356        2       0.00000000       0.03754737      -0.02026009       0.07501110
Ni       8.94705835       8.01759043       4.29317533        2       1.00000000      -0.01245293      -0.12698691       0.03879331
Ni      11.44364974       7.99307992       4.31136541        2       1.00000000      -0.00679498      -0.13949458      -0.02460956
Pt      -0.01964321      -0.00633122       6.53960324        1       0.00000000      -0.02242919      -0.00075560       0.16463638
Pt       2.57806673      -0.01416023       6.51181415        1       0.00000000       0.02066354       0.03081147       0.15385933
Ni       5.10168458      -0.03430631       6.45773585        1       1.00000000      -0.07795120      -0.00720538      -0.20062101
Pt       7.56102853      -0.04936626       6.52750374        1       0.00000000      -0.10334910      -0.03305529       0.12368654
Ni       1.24021390       2.22335715       6.46950117        1       1.00000000      -0.01518462       0.02404045       0.00359074
Pt       3.82017798       2.28508126       6.40883673        1       0.00000000       0.02822808       0.23045762      -0.28434477
Ni       6.38059050       2.21757987       6.40106874        1       1.00000000      -0.01288043       0.08951455      -0.17638354
Ni       8.94000821       2.25250280       6.35861853        1       1.00000000       0.05558048       0.16386735      -0.39587198
Ni       2.53525060       4.43620865       6.45454822        1       1.00000000      -0.01800101       0.18538295      -0.08066037
Ni       5.09944122       4.43801093       6.45501985        1       1.00000000       0.00227919       0.19525130      -0.06591125
Ni       7.64903659       4.36708600       6.45328202        1       1.00000000       0.02749063      -0.05193313      -0.06563980
Ni      10.21400419       4.35857123       6.44046523        1       1.00000000       0.04429731      -0.07408501      -0.08298093
Ni       3.81834125       6.50300808       6.44918327        1       1.00000000      -0.00781580      -0.10408832      -0.09241642
Ni       6.35308624       6.51570886       6.44079971        1       1.00000000       0.02650518      -0.06205592      -0.19028927
Pt       8.96651011       6.50098207       6.43266036        1       0.00000000       0.05021458      -0.11403030       0.12457419
Ni      11.49246324       6.53289376       6.41085586        1       1.00000000       0.02795721      -0.17468207      -0.25964537
