64
Lattice="10.363203400474728 -0.0018106049732031708 0.043777693939085614 5.180033670334351 8.953007698338938 0.03129080234489882 0.0 0.0 21.6008975234766" Properties=species:S:1:pos:R:3:tags:I:1:initial_magmoms:R:1:forces:R:3 unique_id=51850b3dc54f41f1b3a06273614d22cd stress="0.0056380560216045105 0.00018764432625842587 0.0005089709555977642 0.00018764432625842587 0.005631229505579798 0.00020371105711131936 0.0005089709555977642 0.00020371105711131936 -0.0017671497118650365" energy=-378.25279564793266 pbc="T T T"
Ni      -0.03180895       0.01277299       0.09731002        1       1.00000000      -0.20970253      -0.06479851      -0.15377453
Ni       2.61829603      -0.00904596       0.10937710        1       1.00000000       0.22165391      -0.09752502      -0.29755995
Ni       5.18743802      -0.02017032       0.11067500        1       1.00000000       0.00757520       0.16989633      -0.27661905
Ni       7.79724970      -0.04010225       0.06694934        1       1.00000000       0.01259423      -0.06344186       0.46327141
Ni       1.28181435       2.25224449       0.00000000        0       1.00000000       0.00233505       0.04548289       0.18735768
Pt       3.82762794       2.24263788       0.13747327        1       0.00000000       0.02951466      -0.02599345      -0.50607406
Pt       6.48662561       2.16251848       0.10830086        1       0.00000000      -0.09648796      -0.12919412      -0.63278834
Ni       9.09985668       2.20486628       0.10375894        1       1.00000000      -0.00644833      -0.13663751      -0.04349889
Ni       2.57757564       4.49034002       0.00871760        0       1.00000000      -0.02027562      -0.00291796       0.25023906
Ni       5.17567234       4.48058652       0.11574014        1       1.00000000       0.17233060      -0.09022953      -0.21636548
Pt       7.84857585       4.50504008       0.03401692        0       0.00000000       0.00567608       0.04431798      -0.03272620
Ni      10.39965565       4.48892394       0.02603040        0       1.00000000       0.05561441       0.06652646       0.23285988
Ni       3.85844369       6.74002583       0.12253893        1       1.00000000      -0.06707305       0.18289924      -0.04271595
Pt       6.46098931       6.76674426       0.16354464        2       0.00000000      -0.05085610       0.04723454      -0.52521221
Ni       9.09882777       6.73177026       0.05187774        1       1.00000000      -0.02716023      -0.01107816       0.25380940
Ni      11.67567279       6.72338747       0.04471014        0       1.00000000       0.12636474       0.07303820       0.30201806
Pt       1.30925996       0.72104045       2.08271443        3       0.00000000       0.03797268       0.01429060       0.00987105
Ni       3.92023119       0.75525442       2.17766411        4       1.00000000       0.13261123       0.01519247       0.24887516
Ni       6.49061009       0.72679440       2.20974673        4       1.00000000       0.02922376       0.00250586       0.21940310
Ni       9.04741962       0.71131658       2.16612997        4       1.00000000      -0.11532831      -0.06477824      -0.02423637
Ni       2.60986920       2.99691820       2.18224022        4       1.00000000      -0.02478188       0.11421076       0.17851467
Ni       5.16863539       2.96412855       2.21814041        4       1.00000000      -0.01364277      -0.09800617       0.35883586
Pt       7.78121743       2.95458234       2.24399719        4       0.00000000      -0.01907316      -0.06191155       0.06163977
Pt      10.36724052       2.97728792       2.17909778        4       0.00000000       0.08650582       0.10202636       0.07687193
Pt       3.91413625       5.21055909       2.13349633        3       0.00000000       0.01649094      -0.07033091       0.01745849
Ni       6.50988961       5.23273817       2.20025629        4       1.00000000       0.11961221      -0.06497045       0.22408966
Ni       9.05361707       5.25156704       2.23481745        4       1.00000000      -0.07524722       0.02126301       0.21446856
Pt      11.66908831       5.25166651       2.17121928        4       0.00000000      -0.01796298       0.04821156       0.04604767
Ni       5.15502350       7.47606500       2.16628836        4       1.00000000      -0.13170321       0.00908759       0.10046472
Ni       7.79634033       7.43350596       2.19804960        4       1.00000000       0.07422454      -0.12318403       0.17181169
Pt      10.34799829       7.48367702       2.12487733        3       0.00000000       0.00031350      -0.00178463      -0.03690510
Ni      12.98063442       7.49897033       2.18106109        4       1.00000000      -0.02177221       0.10946399      -0.05291642
Ni      -0.00797980       1.53530891       4.33606834        5       1.00000000       0.00009543       0.09042776      -0.21739188
Pt       2.62398751       1.54749205       4.27159903        5       0.00000000       0.00318362       0.00094177      -0.07978061
Ni       5.21189095       1.50242417       4.31545275        5       1.00000000       0.02529642      -0.00527750      -0.40223336
Ni       7.81315073       1.49769878       4.35021881        6       1.00000000       0.02939308       0.01501930      -0.23188136
Pt       1.28247554       3.79379330       4.42722757        6       0.00000000      -0.06331616       0.00588924       0.02165822
Ni       3.89744622       3.74485634       4.33295340        5       1.00000000       0.00074461       0.01171173      -0.26126143
Pt       6.51532221       3.72592529       4.32963217        5       0.00000000      -0.08787851       0.01302176       0.01703389
Ni       9.09260970       3.76588022       4.39464076        6       1.00000000       0.00109816       0.07298456      -0.21530937
Ni       2.57698048       5.95745980       4.37523721        6       1.00000000      -0.03556586       0.02153782      -0.12621035
Pt       5.16999414       5.94597446       4.29654023        5       0.00000000      -0.11754303       0.02121976      -0.10220387
Ni       7.85456935       5.92370108       4.35458400        6       1.00000000       0.12955021      -0.10920849      -0.27596880
Ni      10.35667731       5.94566437       4.43121372        6       1.00000000      -0.04349135       0.02693807      -0.06964453
Pt       3.87675772       8.26777259       4.28131010        5       0.00000000       0.01642024       0.11672612      -0.12761881
Pt       6.49264448       8.20006582       4.29837326        5       0.00000000       0.01602608       0.02659680      -0.14356252
Pt       9.09349106       8.15030797       4.35348472        6       0.00000000      -0.04676999      -0.03746688      -0.05272687
Pt      11.69425699       8.19883126       4.36821583        6       0.00000000      -0.01216534      -0.02646304      -0.03456311
Pt      -0.00941271       0.04530101       6.56646691        8       0.00000000       0.01775528      -0.00790280       0.14412051
Pt       2.62027436       0.00548973       6.60089752        8       0.00000000       0.05831773      -0.04611948       0.40228468
Pt       5.24906261      -0.09089509       6.59742903        8       0.00000000      -0.08528852       0.07139694       0.27447292
Ni       7.79041276      -0.00091262       6.55458342        8       1.00000000       0.02417131       0.05108122      -0.17234770
Ni       1.30408120       2.29370652       6.53111622        7       1.00000000      -0.01873648      -0.01447970      -0.15521380
Pt       3.85382949       2.29032433       6.48020799        7       0.00000000       0.19010853      -0.10195735       0.52317136
Pt       6.54278075       2.20324537       6.47389614        7       0.00000000      -0.07369900      -0.11186226       0.73405074
Pt       9.13894442       2.32970026       6.53345776        7       0.00000000       0.01346980       0.16237647      -0.10711356
Ni       2.54626808       4.49285185       6.53050853        7       1.00000000      -0.04465098       0.07505065      -0.16755845
Pt       5.18074759       4.48255286       6.58377012        8       0.00000000      -0.04974851      -0.04973634       0.37198616
Ni       7.85403183       4.49902966       6.45884816        7       1.00000000       0.11824177       0.05721391       0.04332718
Ni      10.38947831       4.52562077       6.55828669        8       1.00000000      -0.08926412       0.15645859      -0.29967830
Pt       3.77507877       6.71790978       6.58654777        8       0.00000000      -0.01268589      -0.05122480       0.01501805
Pt       6.57200898       6.66798995       6.51104255        7       0.00000000       0.01303257      -0.04216846       0.50279172
Ni       9.13144715       6.64637717       6.55178819        8       1.00000000       0.04382294      -0.15552082      -0.27510484
Ni      11.64865670       6.66344304       6.56854594        8       1.00000000      -0.15302205      -0.19607028      -0.30905715
