64
Lattice="10.170266695217398 0.03968789026480636 -0.0025537875486533364 5.119504068800629 8.807583265948132 -0.002054009978112767 0.0 0.0 21.452541733118043" Properties=species:S:1:pos:R:3:tags:I:1:initial_magmoms:R:1:forces:R:3 unique_id=09edbf39a54b48bcb6cec569ef9a1536 energy=-369.8788648063453 stress="0.0020211689776985977 1.1128448184034237e-05 0.00017960215877726586 1.1128448184034237e-05 0.0014134619900461644 0.00026839778460047327 0.00017960215877726586 0.00026839778460047327 -0.0052256043608942294" pbc="T T T"
Ni       0.03173917      -0.04387807       0.11993055        1       1.00000000       0.06235004      -0.05261349      -0.28727701
Ni       2.50047496       0.02645885       0.09353810        1       1.00000000       0.06033305       0.16955323      -0.49918920
Pt       5.11690004      -0.03934446       0.15031584        2       0.00000000      -0.07951354       0.02651986      -0.93448925
Ni       7.64468547      -0.01709650       0.09402742        1       1.00000000      -0.03144410      -0.07616580      -0.27431278
Ni       1.27474963       2.22727647       0.05469470        1       1.00000000      -0.03246440       0.07094582       0.23421148
Pt       3.79160785       2.28593015       0.12338335        1       0.00000000       0.01468135      -0.03988775      -0.72215609
Ni       6.37125342       2.26737603       0.05403617        1       1.00000000      -0.01683978      -0.00442442       0.16436597
Pt       8.91197703       2.28934700       0.08636877        1       0.00000000       0.04398292       0.16477742      -0.88418117
Ni       2.53572605       4.45162893       0.04336046        0       1.00000000       0.05098770      -0.00565227       0.34060045
Ni       5.12147567       4.46040276       0.03985208        0       1.00000000      -0.10464066       0.02069200       0.24878784
Ni       7.61610699       4.46203942       0.04591556        0       1.00000000       0.07332597       0.02735613       0.25304146
Ni      10.22293797       4.46925459       0.04390712        0       1.00000000      -0.01940259      -0.04361576       0.34919670
Ni       3.83899704       6.58386555       0.04390777        0       1.00000000       0.01072041       0.02643311       0.31314535
Ni       6.34012822       6.58566173       0.00000000        0       1.00000000      -0.07217272      -0.00088468       0.12633114
Ni       8.94553685       6.55788611       0.11989311        1       1.00000000       0.14744748      -0.06848365      -0.52375085
Ni      11.49855744       6.58294494       0.05010037        1       1.00000000      -0.01763631       0.06450248       0.27333391
Ni       1.29651248       0.78292714       2.09163307        4       1.00000000      -0.01901143       0.15037865       0.10638898
Ni       3.77688740       0.78147457       2.11784356        4       1.00000000      -0.15208167       0.04406164       0.21841280
Ni       6.37486706       0.76331861       2.12295620        4       1.00000000       0.02702748       0.08456131       0.10762964
Pt       8.87729784       0.70215439       2.13558643        4       0.00000000       0.03861580      -0.14022786       0.15985783
Ni       2.51706041       2.98209022       2.17224806        5       1.00000000      -0.02647371       0.08533954       0.09289119
Ni       5.10705885       3.00605142       2.09521165        4       1.00000000       0.03703123       0.06441623       0.04112135
Ni       7.61735531       2.99848856       2.12960489        4       1.00000000      -0.01316583       0.01258709       0.12128791
Ni      10.22550973       3.03246985       2.12222393        4       1.00000000       0.07272480       0.05153766       0.12091001
Ni       3.83380947       5.13245969       2.08061738        4       1.00000000      -0.05114700      -0.05101556      -0.00475615
Ni       6.33523145       5.12862577       2.05835409        4       1.00000000      -0.04185904      -0.02087969       0.02639016
Ni       8.95578995       5.11351569       2.09288101        4       1.00000000       0.01170114      -0.08281470       0.05886309
Ni      11.45793347       5.15682998       2.08961026        4       1.00000000       0.01215857      -0.05424667       0.05897335
Ni       5.07679666       7.27644814       2.11308202        4       1.00000000      -0.13332519      -0.11795210       0.10576018
Pt       7.59735983       7.33536519       2.02957101        3       0.00000000      -0.07723251      -0.01721240      -0.03458416
Ni      10.26123006       7.28400296       2.13869803        4       1.00000000       0.08408265      -0.16476005       0.16689028
Ni      12.72419538       7.31835083       2.08781827        4       1.00000000      -0.00306962      -0.08643859       0.01696240
Pt       0.06788475       1.49595176       4.19930770        7       0.00000000       0.10550503      -0.05138639      -0.00026241
Ni       2.54009249       1.52657032       4.18819443        7       1.00000000       0.04112169       0.00208929      -0.23740129
Pt       5.10430916       1.49937979       4.13337010        6       0.00000000       0.09371008      -0.00373443      -0.14854833
Ni       7.63807970       1.47424573       4.22167885        7       1.00000000      -0.00301900      -0.05875011      -0.19966459
Ni       1.29437483       3.68385547       4.23981761        7       1.00000000       0.05907338       0.00513959      -0.12692726
Ni       3.79479826       3.71568200       4.18035099        7       1.00000000      -0.00488393       0.05574648      -0.23837225
Pt       6.35710762       3.69385743       4.23795643        7       0.00000000      -0.00700777      -0.04567100      -0.00787724
Ni       8.96401995       3.73379749       4.17920327        7       1.00000000       0.09123938       0.02828339      -0.21715256
Pt       2.56544021       5.85733284       4.21968629        7       0.00000000      -0.00204368       0.01984688      -0.01669344
Ni       5.07671677       5.90241872       4.23772671        7       1.00000000      -0.02325565       0.00714731      -0.13512790
Pt       7.63341526       5.86420618       4.22310564        7       0.00000000      -0.01018806       0.03416727      -0.01143629
Ni      10.22503416       5.84523490       4.21013269        7       1.00000000       0.01781530      -0.01807251      -0.16485268
Ni       3.85377867       8.03093256       4.21788773        7       1.00000000       0.04100725       0.00153795      -0.07771094
Ni       6.33754748       8.05536863       4.20309968        7       1.00000000      -0.03851655      -0.01538956      -0.16893353
Pt       8.94581683       8.07569861       4.15804238        7       0.00000000      -0.05144926      -0.02831551      -0.19306672
Ni      11.51637068       8.07378136       4.16797972        7       1.00000000       0.06863130      -0.01985568      -0.25732244
Pt      -0.00449016      -0.08160774       6.41050463        9       0.00000000      -0.24591186       0.03759859       0.17830285
Pt       2.51143477       0.01840801       6.39315724        9       0.00000000       0.16320830       0.09090061       0.33196359
Pt       5.11515646       0.01371585       6.33892897        8       0.00000000      -0.12626056      -0.08689929       1.04727242
Pt       7.63037162      -0.03118939       6.36030912        9       0.00000000       0.18354944       0.08560558       0.18646702
Ni       1.27280319       2.27030665       6.36139339        9       1.00000000       0.04116304       0.03453019      -0.04762602
Pt       3.79669164       2.35409092       6.29683670        8       0.00000000      -0.13104261      -0.05510626       0.71240065
Ni       6.35799731       2.27151523       6.37836108        9       1.00000000       0.00784774      -0.01204328       0.05738648
Pt       8.88681293       2.34322710       6.28598272        8       0.00000000      -0.14032770      -0.10501389       0.91981360
Ni       2.52664762       4.45370359       6.36777125        9       1.00000000       0.04277161      -0.04640140      -0.21992262
Ni       5.10313617       4.47696718       6.37396078        9       1.00000000      -0.09899952       0.01575149      -0.21555820
Ni       7.57739968       4.42767536       6.39501869        9       1.00000000      -0.00724491      -0.03833101       0.00741783
Ni      10.26345484       4.42531452       6.34465614        8       1.00000000       0.02684335      -0.01340910      -0.22193047
Ni       3.84505991       6.52232085       6.36991263        9       1.00000000       0.00197847      -0.00646256      -0.21688080
Ni       6.34027326       6.54810169       6.36465822        9       1.00000000       0.00023330       0.02630060      -0.07743201
Pt       8.94992733       6.49378443       6.45254173       10       0.00000000       0.12511865       0.06795597       0.37033096
Ni      11.49725821       6.56828211       6.36883567        9       1.00000000      -0.07635673       0.05585405      -0.15131222
