64
Lattice="10.429504390774506 0.021824710938883364 0.023309964049849946 5.233652949490578 9.01790198954928 -0.0045685623035388295 0.0 0.0 21.64590923051682" Properties=species:S:1:pos:R:3:tags:I:1:initial_magmoms:R:1:forces:R:3 unique_id=03f74a29f0024f36801240bae40874cd energy=-380.3117110644693 stress="0.006321690314397539 0.0002036148138584006 0.00035254405868971345 0.0002036148138584006 0.00596635470694999 -8.933908636770713e-05 0.00035254405868971345 -8.933908636770713e-05 -0.0015258880561405085" pbc="T T T"
Ni      -0.03720240       0.00152054       0.10825797        1       1.00000000      -0.23682360      -0.08681540      -0.12411419
Ni       2.62380252      -0.00865753       0.10180683        1       1.00000000       0.12257029      -0.07233984      -0.22763249
Ni       5.23409435      -0.02025622       0.09584868        1       1.00000000       0.12344444       0.07816641      -0.23700480
Ni       7.84800276      -0.02085741       0.06505027        1       1.00000000       0.03127260      -0.08423945       0.57886076
Ni       1.30111797       2.26603950       0.09128173        1       1.00000000       0.06717485       0.07782740      -0.29921372
Pt       3.86392264       2.30827787       0.08488013        1       0.00000000      -0.00096933       0.15790142      -0.68144365
Pt       6.54144401       2.19775684       0.09709910        1       0.00000000      -0.06136422      -0.13736649      -0.31939236
Ni       9.14971692       2.23910156       0.10158838        1       1.00000000      -0.08146308      -0.17095468      -0.03739623
Ni       2.60715973       4.52609098       0.00000000        0       1.00000000      -0.01228515       0.01831746       0.24049924
Ni       5.22232002       4.52050560       0.08657518        1       1.00000000       0.16215069      -0.04197167      -0.10801789
Pt       7.90358370       4.54012900       0.02891461        0       0.00000000      -0.00517265       0.00767141       0.14801074
Ni      10.46649057       4.54141039       0.00497424        0       1.00000000       0.03334486       0.07053065       0.24511990
Ni       3.90082487       6.78656749       0.11273810        1       1.00000000      -0.05690863       0.16813365      -0.00573067
Pt       6.51785965       6.81419403       0.14451628        1       0.00000000      -0.08600312       0.04307516      -0.42846984
Ni       9.16849210       6.78115055       0.02311320        0       1.00000000      -0.01471088      -0.01492989       0.34109589
Ni      11.76419791       6.78703369       0.01223949        0       1.00000000       0.14094160       0.08648879       0.33294498
Pt       1.28137130       0.70255732       2.09441035        2       0.00000000      -0.00739999      -0.03888835       0.06805089
Pt       3.97606750       0.77146206       2.18935837        3       0.00000000       0.18780741       0.02454063       0.11986634
Ni       6.55952738       0.74401583       2.21105375        3       1.00000000       0.17532820      -0.02010291       0.15916480
Ni       9.08972017       0.73155353       2.15809133        3       1.00000000      -0.20407985      -0.03815775      -0.05752559
Ni       2.62379241       3.02670546       2.18459988        3       1.00000000       0.01488143       0.05640652       0.23846375
Ni       5.22914436       3.02015436       2.23303779        3       1.00000000       0.05329991       0.02629080       0.39086230
Pt       7.79064283       3.01672437       2.30591489        4       0.00000000      -0.10364407       0.05331515       0.21601076
Pt      10.40804392       3.03893588       2.12535643        2       0.00000000      -0.14291993       0.11253987      -0.00722498
Pt       3.96815534       5.24061552       2.11712481        2       0.00000000       0.03245543      -0.06597286      -0.02337566
Ni       6.56425806       5.26547591       2.20314808        3       1.00000000       0.18088646      -0.07107507       0.20249782
Ni       9.11219360       5.29103652       2.22455294        3       1.00000000      -0.13060434       0.03878386       0.24134450
Pt      11.75366432       5.28460270       2.11637073        2       0.00000000       0.08435116      -0.01466092      -0.05170478
Ni       5.20349168       7.51650312       2.15907431        3       1.00000000      -0.15216477      -0.03158412       0.11413047
Ni       7.85219580       7.47114620       2.18355008        3       1.00000000       0.11938163      -0.19732711       0.17273116
Pt      10.45027806       7.49831635       2.10860767        2       0.00000000       0.00249160      -0.05264873      -0.06540524
Ni      13.07686592       7.56999304       2.14654848        2       1.00000000      -0.00355901       0.10403693      -0.12586526
Pt      -0.06479047       1.54197475       4.32884398        5       0.00000000      -0.10962362       0.04277894      -0.15602205
Pt       2.66018567       1.54795262       4.31882175        5       0.00000000      -0.08690970      -0.00965500      -0.12129373
Ni       5.26429039       1.54688983       4.34877304        5       1.00000000       0.05197395       0.15782058      -0.41962798
Ni       7.80677701       1.53795737       4.36208822        6       1.00000000      -0.06365507       0.02092978      -0.24939762
Pt       1.27245410       3.80238951       4.39786552        6       0.00000000      -0.17723472       0.04535003      -0.06446829
Ni       3.96390017       3.74326865       4.34815619        5       1.00000000       0.10055657      -0.05530355      -0.36628347
Ni       6.55829992       3.74337067       4.37112298        6       1.00000000       0.01596111      -0.02232517      -0.20774125
Ni       9.09682828       3.82398326       4.40855503        6       1.00000000      -0.10163932       0.12558667      -0.14319185
Pt       2.59839172       5.98556432       4.39474635        6       0.00000000       0.02718110      -0.01589146      -0.08919264
Pt       5.29590254       5.91819095       4.29214573        5       0.00000000       0.09726652      -0.11919561      -0.20129355
Ni       7.89678486       5.93979438       4.36501005        6       1.00000000       0.10792373      -0.21873060      -0.28920235
Ni      10.40204204       5.99004737       4.43373176        6       1.00000000      -0.07533596      -0.05081717      -0.06619515
Pt       3.90786072       8.27772168       4.28778093        5       0.00000000       0.06391704      -0.02737480      -0.21468777
Pt       6.56259047       8.21678821       4.29737344        5       0.00000000      -0.02198237      -0.00218263      -0.18657978
Pt       9.16787077       8.17490301       4.37341121        6       0.00000000      -0.04973464      -0.09523795      -0.06023014
Pt      11.76231843       8.32408280       4.35719357        6       0.00000000      -0.06522155       0.09676738      -0.10520557
Pt      -0.03806879      -0.00875518       6.64449429        8       0.00000000       0.08738855       0.04174032       0.27708000
Pt       2.64347963      -0.03524929       6.64397545        8       0.00000000      -0.01919829       0.03144178       0.43123915
Pt       5.28082455      -0.08715811       6.63990475        8       0.00000000      -0.04700602       0.07274633       0.21344166
Ni       7.82230638       0.00245878       6.59327893        8       1.00000000       0.04080440       0.03194118      -0.20919465
Pt       1.30342751       2.33586614       6.64590849        8       0.00000000      -0.05229465      -0.05400620       0.34680896
Pt       3.93261013       2.28576739       6.49988921        7       0.00000000       0.14931850      -0.10154100       0.72410241
Pt       6.56332700       2.24369209       6.45478082        7       0.00000000      -0.07246144      -0.00499355       0.47246387
Pt       9.11444476       2.34372083       6.60426035        8       0.00000000       0.00186375       0.25524396       0.08074684
Ni       2.59003061       4.52426135       6.57817657        8       1.00000000      -0.04827308       0.05604526      -0.13527155
Pt       5.23485499       4.50370120       6.57363005        8       0.00000000       0.03718730      -0.00432220       0.19018143
Ni       7.88989998       4.52918170       6.47444854        7       1.00000000       0.06792559       0.05619545      -0.09001428
Ni      10.43138514       4.58391534       6.57575863        8       1.00000000      -0.12263574       0.12883174      -0.35297276
Pt       3.83168570       6.75112044       6.64590923        8       0.00000000       0.08681811      -0.01315301       0.14939882
Pt       6.62453877       6.69456184       6.53137720        7       0.00000000       0.01076857      -0.05384827       0.43061424
Ni       9.19210249       6.69854415       6.56664300        8       1.00000000       0.06655419      -0.12891720      -0.29215177
Ni      11.72337263       6.72763877       6.59596220        8       1.00000000      -0.13191278      -0.17091491      -0.30599616
