64
Lattice="10.286197415917986 -0.007081938872689528 -0.0296852856795982 5.136965568987195 8.850781642698498 -0.06444914144155367 -0.024237934261254642 -0.0467694554029621 8.76763771839331" Properties=species:S:1:pos:R:3:tags:I:1:initial_magmoms:R:1:forces:R:3 unique_id=d41608604c444235a6e76645cfbffec3 stress="0.00017620331494970498 3.4075607200482428e-06 -3.864123366673707e-06 3.4075607200482428e-06 0.00018416024845756968 1.9174543634840737e-05 -3.864123366673707e-06 1.9174543634840737e-05 0.00018158468110632264" energy=-396.3172979828058 pbc="T T T"
Ni      -0.00348847       0.01757306       0.18213786        4       1.00000000       0.01730211       0.00871584       0.24833678
Ni       2.56459333      -0.00232970       0.20593711        4       1.00000000      -0.01275221      -0.01640984       0.38855340
Ni       5.13688653      -0.02221541       0.15503300        4       1.00000000      -0.06280381       0.09587195       0.32615010
Ni       7.72095569      -0.05943590       0.07068257        4       1.00000000      -0.00571803      -0.19614132       0.13135047
Ni       1.24831612       2.21440759       0.09146170        4       1.00000000      -0.14546133      -0.00178489       0.19179623
Pt       3.78265081       2.21492239       0.08900726        4       0.00000000      -0.10262764       0.00758494      -0.14309166
Pt       6.44625724       2.15166731       0.16237170        4       0.00000000       0.04162906      -0.07403494       0.22088673
Ni       9.03883425       2.19848617       0.11010050        4       1.00000000       0.08667217       0.01679687       0.13013779
Ni       2.56066814       4.44069231       0.04113841        4       1.00000000       0.04978666       0.03703963      -0.00606679
Ni       5.10354897       4.43576897       0.15022261        4       1.00000000      -0.04006123      -0.01068547       0.32059097
Pt       7.78317112       4.42624079       0.05916761        4       0.00000000       0.08433218      -0.01886929      -0.08989737
Ni      10.31362152       4.40868232       0.01913130        4       1.00000000       0.10261783      -0.06460074       0.10918660
Ni       3.81439768       6.63231852       0.14842784        4       1.00000000      -0.06416564      -0.08671318       0.31259170
Pt       6.39205188       6.67426619       0.13313770        4       0.00000000      -0.09116120      -0.01593724       0.12287319
Ni       9.01405598       6.64181947       0.00954800        4       1.00000000      -0.02374802      -0.00592517       0.02160185
Ni      11.58651286       6.62794733      -0.00445884        4       1.00000000       0.09204867      -0.05505068       0.00744836
Ni       1.29261302       0.75010084       2.15316812        3       1.00000000      -0.01849168       0.14313137      -0.04273311
Ni       3.84021383       0.75204063       2.18403868        3       1.00000000       0.04353822       0.07865855       0.07508671
Ni       6.41840173       0.73501508       2.21651120        3       1.00000000      -0.01106546       0.09861060       0.15271129
Pt       8.99462031       0.75322384       2.14462261        3       0.00000000      -0.04713492       0.05251180       0.06910223
Ni       2.56548805       2.93348509       2.18540396        3       1.00000000       0.00558672       0.04857525      -0.03348585
Ni       5.10311504       2.95077600       2.20022412        3       1.00000000      -0.17107540      -0.01892182      -0.02810690
Ni       7.73439326       2.95625248       2.20018105        3       1.00000000       0.12305925       0.07403952      -0.04891938
Ni      10.28324447       2.92989694       2.15874257        3       1.00000000       0.06318442       0.03644575       0.07372782
Ni       3.87840835       5.14534402       2.17147171        3       1.00000000       0.04620322      -0.05140987       0.10612834
Ni       6.40188849       5.14982487       2.18161268        3       1.00000000      -0.01350447       0.10511610      -0.06604484
Ni       8.97321711       5.12269629       2.17707553        3       1.00000000      -0.00165957      -0.09271746       0.10145640
Pt      11.61204455       5.08557874       2.10866894        3       0.00000000       0.08740541      -0.07771664      -0.00166725
Ni       5.10211893       7.33079048       2.14326901        3       1.00000000      -0.12926965      -0.13062542      -0.04924925
Ni       7.70148562       7.35855958       2.13272644        3       1.00000000       0.02085467      -0.11380554      -0.07449534
Pt      10.26132958       7.36584166       2.03956524        3       0.00000000       0.01976953      -0.14599309      -0.02499166
Ni      12.86730994       7.34027501       2.08005719        3       1.00000000      -0.02378651      -0.06186076      -0.01594153
Ni      -0.01490556       1.52184664       4.32174898        2       1.00000000       0.01822849       0.12472442      -0.12640894
Pt       2.54621328       1.56749591       4.28529836        2       0.00000000      -0.01207364       0.00158162      -0.05786080
Ni       5.11927817       1.48502750       4.28462758        2       1.00000000      -0.02341691       0.09458550      -0.17261701
Ni       7.72647593       1.47588742       4.28768364        2       1.00000000       0.06005597       0.07765361      -0.11002660
Ni       1.27017612       3.66195036       4.35662319        2       1.00000000      -0.03940625      -0.00708381      -0.09277139
Ni       3.82484682       3.70350853       4.29095244        2       1.00000000      -0.02196942       0.11837214      -0.23444105
Pt       6.42875011       3.68336710       4.20480073        2       0.00000000      -0.07936820      -0.05364331       0.10368946
Ni       8.99557761       3.63445454       4.27691127        2       1.00000000       0.03630416      -0.09417209      -0.28606929
Ni       2.56957343       5.80602254       4.30700756        2       1.00000000       0.04144764      -0.11745309      -0.11517455
Ni       5.09727175       5.83900843       4.24918957        2       1.00000000      -0.06204855      -0.03349612      -0.14296164
Ni       7.71393083       5.82825475       4.25763610        2       1.00000000       0.01906026      -0.01979486      -0.24359051
Pt      10.26756510       5.77035247       4.35038555        2       0.00000000      -0.00163717      -0.01594761      -0.08182887
Pt       3.83305160       8.07349424       4.24775313        2       0.00000000      -0.02429875      -0.10152913       0.11621449
Pt       6.39228972       8.07283860       4.16476468        2       0.00000000      -0.01192585       0.00724970       0.01017586
Pt       8.96896048       8.08167959       4.23778926        2       0.00000000      -0.03029148       0.07938029       0.11940703
Pt      11.58495846       8.10874931       4.25420674        2       0.00000000       0.02800827       0.01440952       0.01347382
Pt      -0.03139380       0.01370905       6.56232785        1       0.00000000      -0.01841123       0.08260173       0.10553173
Pt       2.57291097       0.02836526       6.57948390        1       0.00000000       0.03120376       0.13184641       0.25278501
Pt       5.16355593      -0.09814485       6.56202615        1       0.00000000       0.07393223      -0.15967656       0.13280750
Ni       7.69691747      -0.03877870       6.49582798        1       1.00000000       0.08226187       0.09835141      -0.13982410
Ni       1.28411051       2.25881469       6.47653108        1       1.00000000       0.04895585       0.18220210      -0.12121908
Ni       3.80820906       2.21191505       6.40687469        1       1.00000000      -0.01651967       0.04323148      -0.28201921
Pt       6.42752792       2.15816184       6.39642812        1       0.00000000       0.02859367       0.03225674      -0.24316961
Pt       9.03145086       2.26959018       6.44343011        1       0.00000000       0.15689803       0.13762965       0.02167823
Ni       2.48642187       4.36229129       6.44579038        1       1.00000000      -0.15652988      -0.04782587      -0.25475833
Pt       5.04948605       4.35162671       6.46657509        1       0.00000000      -0.10827225      -0.00908869       0.09263799
Ni       7.74758763       4.40924714       6.36885127        1       1.00000000       0.08817307       0.08220697      -0.32878198
Ni      10.30109244       4.40286874       6.45396307        1       1.00000000       0.14698896       0.08151340      -0.03789048
Pt       3.71965148       6.58368631       6.48820670        1       0.00000000      -0.14150775       0.00553672       0.19981221
Pt       6.46731321       6.54822387       6.38108936        1       0.00000000       0.01757150       0.00675330      -0.32722093
Ni       9.00925187       6.54392451       6.44872248        1       1.00000000       0.01752309      -0.12088085      -0.14643051
Ni      11.53103020       6.54950054       6.45239002        1       1.00000000      -0.06703313      -0.18538952      -0.10817450
