64
Lattice="10.324895044536566 -0.012372204957729428 0.005502903918473877 5.151732878474063 8.883483851703897 -0.019153726743432235 0.004493102234607717 -0.020652400538347368 8.810040163654087" Properties=species:S:1:pos:R:3:tags:I:1:initial_magmoms:R:1:forces:R:3 unique_id=d6173c91702c4f35bd67a2ee1ec33ba9 stress="0.0002174760299702011 5.405245235787095e-06 -1.189479752822488e-05 5.405245235787095e-06 0.0002243326910022353 1.7861086799108724e-05 -1.189479752822488e-05 1.7861086799108724e-05 0.0002150880794491855" energy=-398.29168210302475 pbc="T T T"
Ni      -0.00297166       0.01696833       0.18297539        4       1.00000000       0.04353979       0.06438399       0.29131320
Ni       2.58019475       0.00098175       0.21332151        4       1.00000000       0.00363918       0.01062966       0.39781133
Ni       5.16001132      -0.01992268       0.16727116        4       1.00000000      -0.03967773       0.12252435       0.29982158
Ni       7.75602762      -0.05622600       0.09105585        4       1.00000000       0.02364320      -0.14825261       0.13990605
Ni       1.25674014       2.22376056       0.18434724        4       1.00000000      -0.14504290       0.00544543       0.31678446
Pt       3.80670429       2.22052705       0.11042363        4       0.00000000      -0.06998504       0.04166751      -0.14354805
Pt       6.47781503       2.15914803       0.19112510        4       0.00000000       0.09337406      -0.09367953       0.20775620
Ni       9.07134272       2.20948406       0.14770993        4       1.00000000       0.12978139       0.03884838       0.12532847
Ni       2.55758409       4.45745235       0.04726256        4       1.00000000      -0.06414315       0.00194824      -0.08435480
Ni       5.15049383       4.44248760       0.15041432        4       1.00000000       0.18448158      -0.09616436       0.22132174
Pt       7.81625427       4.44535151       0.09997260        4       0.00000000       0.13459969      -0.00075516      -0.11842219
Ni      10.34444709       4.42568728       0.06849658        4       1.00000000       0.08105882      -0.07815152       0.08456911
Ni       3.82623420       6.68241713       0.07025370        4       1.00000000      -0.08434122       0.08627620       0.09155573
Pt       6.42203413       6.70704483       0.18377147        4       0.00000000      -0.06240338       0.01766027       0.17307732
Ni       9.04878661       6.66733340       0.06541519        4       1.00000000      -0.00238054       0.01630380       0.03752848
Ni      11.62720603       6.65623436       0.04610400        4       1.00000000       0.08520338      -0.01234370      -0.01163952
Ni       1.30110111       0.75558679       2.16721132        3       1.00000000      -0.02551357       0.10715243      -0.03159451
Ni       3.86245205       0.75455795       2.20474986        3       1.00000000       0.04528138       0.05558593       0.03231173
Ni       6.45018336       0.73855091       2.24767381        3       1.00000000       0.00456279       0.06925310       0.14917073
Pt       9.03384852       0.76225906       2.18655056        3       0.00000000      -0.07327155       0.07074055       0.07420618
Ni       2.55976531       2.93264818       2.20538249        3       1.00000000      -0.07351158       0.03789535      -0.05382143
Ni       5.15287853       2.92548354       2.23953508        3       1.00000000      -0.09825075      -0.12769192       0.02808413
Ni       7.77093499       2.96501393       2.23893822        3       1.00000000       0.17207003       0.04576122      -0.06245069
Ni      10.31864956       2.93692315       2.21523188        3       1.00000000      -0.01849670       0.00341123       0.11320303
Pt       3.87764651       5.15782264       2.14980372        3       0.00000000      -0.06279891      -0.03887283      -0.05101600
Ni       6.48453133       5.16225435       2.21339413        3       1.00000000       0.11106130       0.02227838      -0.05849190
Ni       9.00479426       5.14703070       2.23271167        3       1.00000000      -0.03872972      -0.06728581       0.15234276
Pt      11.58909125       5.10285248       2.16803643        3       0.00000000      -0.04141150      -0.06198002      -0.01225073
Ni       5.14243050       7.41578821       2.18354459        3       1.00000000      -0.13796659       0.01881242      -0.05114535
Ni       7.73714520       7.39522367       2.19370108        3       1.00000000       0.02722711      -0.07055364      -0.00118837
Pt      10.29830963       7.40530547       2.10436300        3       0.00000000       0.01908621      -0.12988304      -0.03438234
Ni      12.90465376       7.39529698       2.15733416        3       1.00000000      -0.02313660      -0.03026283      -0.08396553
Ni      -0.01269871       1.53768837       4.34255250        2       1.00000000       0.04015502       0.17898225      -0.10067525
Pt       2.59597985       1.57306882       4.28488895        2       0.00000000      -0.06090785       0.02945978      -0.00684375
Ni       5.15880120       1.49222367       4.33270224        2       1.00000000       0.00508460       0.03574486      -0.17583332
Ni       7.76636170       1.48168315       4.34067441        2       1.00000000       0.04968801       0.03777097      -0.12249962
Ni       1.28848782       3.70103397       4.36182041        2       1.00000000      -0.00039595      -0.02634472      -0.14235819
Ni       3.84273687       3.69236400       4.36611916        2       1.00000000      -0.02114229       0.06345581      -0.16664679
Pt       6.50287311       3.65725358       4.26682623        2       0.00000000      -0.02468765      -0.08996579       0.05977254
Ni       9.04655143       3.65939891       4.34257129        2       1.00000000       0.07946728      -0.11869074      -0.26250255
Ni       2.56000493       5.86354091       4.40876995        2       1.00000000      -0.04694455      -0.09062558      -0.07461235
Pt       5.12406297       5.87343699       4.31676058        2       0.00000000       0.08952179      -0.00237601       0.04168082
Ni       7.76621188       5.86282150       4.33840895        2       1.00000000       0.01572093      -0.04608890      -0.21487862
Pt      10.31281153       5.80663628       4.43349987        2       0.00000000      -0.02204874      -0.01227890      -0.06106962
Pt       3.83491733       8.14800816       4.34302878        2       0.00000000      -0.02600289       0.00603949       0.03592681
Pt       6.43832047       8.16356439       4.24269060        2       0.00000000      -0.03489084       0.07878823       0.02877115
Pt       9.02274482       8.11641462       4.31190157        2       0.00000000      -0.08844502       0.05767190       0.09415382
Pt      11.62993742       8.14695574       4.34054254        2       0.00000000       0.00935929       0.00171438      -0.04948179
Pt      -0.05501176      -0.03624513       6.60680784        1       0.00000000      -0.02724014      -0.00875038       0.17316757
Pt       2.61167977      -0.00307546       6.62142857        1       0.00000000       0.02223004       0.07575171       0.23179942
Pt       5.20864148      -0.09245735       6.60928441        1       0.00000000       0.04292002      -0.27051301       0.14954118
Ni       7.74231755      -0.06588377       6.55836340        1       1.00000000       0.01779227      -0.07440394      -0.10681935
Pt       1.31887741       2.32525279       6.55624368        1       0.00000000       0.07929974       0.16645811       0.19287421
Ni       3.86818386       2.22270021       6.45653201        1       1.00000000       0.00669338      -0.06025549      -0.29337143
Pt       6.45011943       2.17846043       6.46743984        1       0.00000000      -0.02997426       0.00267145      -0.22221102
Pt       9.02928708       2.26375648       6.51188727        1       0.00000000       0.02484304       0.08312358      -0.00477498
Ni       2.55275161       4.48047278       6.50510958        1       1.00000000      -0.14373355       0.20953346      -0.26231178
Pt       5.05507288       4.40546473       6.56450555        1       0.00000000      -0.17694891       0.04878647       0.07705744
Ni       7.78362660       4.44049256       6.44640879        1       1.00000000       0.05785558       0.01636491      -0.31540833
Ni      10.32626700       4.46305313       6.53949469        1       1.00000000       0.01156239       0.12489836      -0.01988486
Ni       3.79235293       6.63482907       6.53028275        1       1.00000000      -0.15978466       0.00698572      -0.13276623
Pt       6.49802392       6.58513141       6.48683804        1       0.00000000       0.05016527      -0.05978877      -0.23858578
Ni       9.06072701       6.58368419       6.53500458        1       1.00000000       0.04780821      -0.11655994      -0.11916278
Ni      11.64549442       6.59190064       6.53925802        1       1.00000000       0.11543192      -0.12826077      -0.12986739
