64
Lattice="10.298530587729955 -0.025358436891610988 0.0030519315508718663 5.1273042433165825 8.909174279133373 -0.008471779295023915 0.0024918916765123054 -0.009425964447862112 8.809967528624487" Properties=species:S:1:pos:R:3:tags:I:1:initial_magmoms:R:1:forces:R:3 unique_id=db96036df15f4eb8b72624d604f65ebe stress="0.00025427506631385544 2.7278160290552443e-06 -3.317476222650231e-06 2.7278160290552443e-06 0.00026135533732980776 1.6148817050381757e-05 -3.317476222650231e-06 1.6148817050381757e-05 0.0002467655435994809" energy=-397.94098761494286 pbc="T T T"
Ni       0.02014498       0.03283108       0.20251589        4       1.00000000       0.09172925       0.11968446       0.33712303
Ni       2.56406955      -0.00099181       0.21005426        4       1.00000000      -0.05715077       0.01129120       0.41756219
Ni       5.11837551      -0.02508300       0.15894449        4       1.00000000      -0.08036924       0.14829199       0.29252887
Pt       7.78095839      -0.09512631       0.08048611        4       0.00000000       0.05576603      -0.04665789      -0.06574491
Ni       1.24216865       2.23039978       0.10978801        4       1.00000000      -0.16346163       0.02251779       0.25594674
Pt       3.76952842       2.23188348       0.11285014        4       0.00000000      -0.12129929       0.03328963      -0.12954348
Pt       6.42419012       2.24738111       0.14995608        4       0.00000000       0.00026398       0.03266350       0.26685216
Ni       9.05707043       2.20630364       0.19222534        4       1.00000000       0.07240037      -0.04227630       0.35909668
Ni       2.55895986       4.46951303       0.06558891        4       1.00000000       0.06332984       0.01079317       0.01897802
Ni       5.09786847       4.46977192       0.17782543        4       1.00000000      -0.05475461       0.05444098       0.33381710
Pt       7.79626169       4.47086298       0.10532344        4       0.00000000       0.16662684       0.06815510      -0.11162324
Ni      10.31617332       4.42131525       0.07111014        4       1.00000000       0.11949878      -0.11663494       0.13969125
Ni       3.82710107       6.64447655       0.10118705        4       1.00000000      -0.02880231      -0.21390455       0.22961776
Pt       6.38677058       6.71737773       0.18687088        4       0.00000000      -0.07097431       0.03740974       0.05301899
Ni       9.00924190       6.67778610       0.06363226        4       1.00000000      -0.03542664       0.05305450       0.01160366
Ni      11.57449617       6.62948294       0.05285679        4       1.00000000       0.06004134      -0.11691167      -0.00570973
Ni       1.26834675       0.75918949       2.17045438        3       1.00000000      -0.04452796       0.14702494      -0.01560085
Ni       3.81932544       0.75137297       2.20033238        3       1.00000000      -0.04815360       0.04473627       0.01583300
Pt       6.42183004       0.74806686       2.25554874        3       0.00000000      -0.02155403       0.10049868      -0.14176795
Ni       9.07075794       0.73469300       2.19510613        3       1.00000000       0.10046407       0.02011834       0.02386009
Ni       2.56866367       2.95609345       2.20834198        3       1.00000000      -0.04230314       0.02663828       0.01244811
Ni       5.09508579       3.00881424       2.23894999        3       1.00000000      -0.20723080       0.06405188       0.00858450
Ni       7.77000289       2.99268468       2.22209321        3       1.00000000       0.13636700       0.09052233      -0.06751336
Ni      10.28160698       2.90887487       2.19642992        3       1.00000000       0.04672187      -0.04924202       0.09731096
Ni       3.88383651       5.19433669       2.21173735        3       1.00000000       0.05080555       0.00593117       0.09143593
Ni       6.40779530       5.19441165       2.22852126        3       1.00000000      -0.03186082       0.14590968      -0.08050520
Ni       8.97347851       5.14965320       2.23805762        3       1.00000000      -0.01969532      -0.12166810       0.15983623
Pt      11.62038962       5.12304260       2.14246445        3       0.00000000       0.06086555      -0.08625821       0.03005506
Ni       5.09928324       7.40855384       2.19733925        3       1.00000000      -0.14103923      -0.10828107      -0.11408410
Ni       7.68710827       7.41075134       2.20046194        3       1.00000000      -0.03500179      -0.10407730      -0.06718964
Pt      10.22699917       7.36799466       2.11013712        3       0.00000000       0.01792468      -0.16708664      -0.03429989
Ni      12.90715312       7.36327524       2.19509048        3       1.00000000       0.03504696      -0.16506557      -0.04371878
Ni       0.01233354       1.49971433       4.33681459        2       1.00000000       0.12658810      -0.03259085      -0.16616230
Pt       2.59986586       1.52936663       4.31882382        2       0.00000000       0.01596872      -0.01962667      -0.07644782
Ni       5.12530217       1.50740472       4.35876935        2       1.00000000       0.04444582       0.09264226      -0.06912683
Pt       7.80493703       1.51037868       4.32282522        2       0.00000000       0.17374551       0.04341942       0.07715479
Pt       1.28198060       3.70392982       4.41440890        2       0.00000000      -0.01908373      -0.07686416      -0.04132896
Ni       3.85665744       3.73714897       4.34507838        2       1.00000000      -0.02166414       0.09033962      -0.24320952
Pt       6.41017735       3.77341113       4.27365144        2       0.00000000      -0.05624110      -0.05639209       0.00781531
Ni       8.99825222       3.70409497       4.35112675        2       1.00000000       0.00900377       0.00690723      -0.22277521
Ni       2.60463560       5.89164259       4.39671443        2       1.00000000       0.06481376      -0.18442440      -0.08782041
Ni       5.09715318       5.90151052       4.32356375        2       1.00000000      -0.06177285      -0.04938975      -0.19721313
Ni       7.71170445       5.89032551       4.33966722        2       1.00000000      -0.04336321       0.02081862      -0.25213318
Pt      10.24049046       5.85632217       4.43731732        2       0.00000000      -0.03919170      -0.03270960      -0.06403946
Pt       3.85386954       8.08874173       4.31310012        2       0.00000000       0.03526843      -0.03741584      -0.04949659
Pt       6.39773684       8.13020141       4.23969337        2       0.00000000      -0.02712223      -0.04158794      -0.01164406
Pt       8.97341336       8.14053380       4.32573609        2       0.00000000       0.01415112       0.05262680       0.08440141
Pt      11.59296427       8.09475028       4.38939485        2       0.00000000       0.01990884      -0.07916897      -0.00154604
Pt      -0.03977981      -0.00273378       6.59195681        1       0.00000000      -0.08911718      -0.00780779       0.16680820
Pt       2.58262899       0.03595721       6.62372456        1       0.00000000      -0.00713897       0.09502500       0.25527497
Pt       5.18383185      -0.08205490       6.60567845        1       0.00000000       0.05271566      -0.18234495       0.13129389
Ni       7.73442579      -0.06133351       6.48200866        1       1.00000000       0.04228795       0.01022969      -0.25218053
Ni       1.30899373       2.27400221       6.55072362        1       1.00000000       0.10638509       0.11582518      -0.00754516
Ni       3.82998238       2.24535164       6.46491297        1       1.00000000      -0.06323864       0.04707373      -0.26439156
Pt       6.41855970       2.22312413       6.47357069        1       0.00000000       0.02274684       0.07441454      -0.32503748
Pt       9.07581215       2.29815500       6.56756579        1       0.00000000       0.12793158       0.17659678       0.20187608
Ni       2.52922233       4.46542626       6.53525496        1       1.00000000      -0.19662183       0.06743225      -0.11181360
Pt       5.02286281       4.45522945       6.54062188        1       0.00000000      -0.23220738       0.07293043       0.11840298
Ni       7.75800629       4.45943336       6.45273419        1       1.00000000       0.03926726       0.07522784      -0.31301364
Ni      10.31279051       4.46105432       6.55842798        1       1.00000000       0.11343940       0.16827755       0.03319078
Ni       3.78451517       6.65884929       6.52447172        1       1.00000000      -0.17366699       0.00508858      -0.12745796
Pt       6.45429259       6.61639404       6.46642113        1       0.00000000       0.00879808      -0.02633474      -0.26753543
Ni       9.02352824       6.60999772       6.54682505        1       1.00000000       0.01172596      -0.10441517      -0.09089115
Ni      11.60286933       6.60573126       6.55139174        1       1.00000000       0.12699147      -0.18276198      -0.11130758
