64
Lattice="10.103362053807853 -0.005573125656234167 0.01900819878967167 5.046854558507148 8.724853709088793 -0.03211428279885255 0.0 0.0 21.44456596719308" Properties=species:S:1:pos:R:3:tags:I:1:initial_magmoms:R:1:forces:R:3 unique_id=4737d88b738a4de68e239af205bee0da energy=-367.41329700787287 stress="0.004116982504904606 -6.147476330914492e-05 0.0002636910508747444 -6.147476330914492e-05 0.0038970932874013656 -0.000281668893683967 0.0002636910508747444 -0.000281668893683967 -0.0021289387538098135" pbc="T T T"
Ni       0.04074542      -0.04236534       0.16572261        2       1.00000000       0.10126179       0.04386043      -0.40236273
Ni       2.48045502      -0.03160631       0.17897619        2       1.00000000       0.05428348       0.00680139      -0.15866260
Pt       5.07417723      -0.03442768       0.03435725        0       0.00000000      -0.13282111       0.02412772      -0.30939113
Ni       7.60260733      -0.02499395       0.15573449        2       1.00000000       0.01324401       0.04287837      -0.59367409
Ni       1.25534361       2.19258530       0.08875227        1       1.00000000      -0.02616434      -0.00551713       0.31089005
Pt       3.74811458       2.23807289       0.16262361        2       0.00000000      -0.01089383      -0.03588645      -0.63013474
Ni       6.31949670       2.22033843       0.08972188        1       1.00000000      -0.04283631       0.02396316       0.09988584
Pt       8.84964927       2.23071913       0.00000000        0       0.00000000       0.06514808       0.00986175      -0.12446807
Ni       2.49481468       4.39843970       0.06385625        1       1.00000000       0.03674178      -0.00039408       0.31473941
Ni       5.05378161       4.39302841       0.04054259        0       1.00000000      -0.10266061      -0.00925363       0.07654755
Ni       7.56961132       4.38630914       0.04774674        0       1.00000000       0.12028643       0.03873403       0.04249721
Ni      10.12990943       4.38775263       0.08134555        1       1.00000000      -0.03136409       0.03646957       0.27999305
Ni       3.81740100       6.50838377       0.02171763        0       1.00000000       0.11085287      -0.03964254       0.07787372
Ni       6.30351385       6.55309791       0.03926943        0       1.00000000       0.02375543       0.08741112       0.12714676
Ni       8.79513208       6.48342672       0.12686855        1       1.00000000      -0.09035528      -0.03138529      -0.18488609
Ni      11.37377264       6.47249921       0.02093597        0       1.00000000      -0.07197669       0.00421287       0.05138385
Ni       1.31073093       0.73249013       2.17711108        4       1.00000000       0.00313749       0.15352389       0.14114190
Ni       3.73129251       0.71709251       2.19163228        4       1.00000000      -0.08115240      -0.04404335       0.10440368
Ni       6.32146275       0.75862353       2.15643143        4       1.00000000       0.00342844       0.01611905      -0.03483368
Pt       8.89098678       0.77299285       2.20574963        4       0.00000000       0.06378330       0.12527291      -0.03227817
Ni       2.48183161       2.92001043       2.22158381        4       1.00000000       0.01301307      -0.06343311       0.11352050
Ni       5.05414068       2.90841427       2.17492554        4       1.00000000      -0.03423842      -0.00282648      -0.01834471
Ni       7.58143784       2.91566024       2.16958733        4       1.00000000       0.08321329      -0.00048618       0.06404496
Ni      10.15068051       2.94201208       2.19995097        4       1.00000000       0.00096745      -0.03297822       0.13985664
Ni       3.77589396       5.01583723       2.14071387        3       1.00000000      -0.03207785      -0.16299815       0.05870663
Pt       6.31934290       5.10797819       2.11297522        3       0.00000000       0.03351599       0.03552426      -0.04745331
Ni       8.85613692       5.01813328       2.16025242        4       1.00000000       0.02151350      -0.15699342       0.09678924
Ni      11.36064814       4.99970726       2.16486288        4       1.00000000      -0.02143371      -0.07677148       0.16234043
Ni       5.09996500       7.26333879       2.11254289        3       1.00000000      -0.02046415       0.06093946       0.09725126
Ni       7.53906364       7.29317584       2.14931494        3       1.00000000      -0.02158909       0.05892229       0.14056372
Pt      10.03883240       7.20665603       2.21167348        4       0.00000000      -0.06227323      -0.03999010      -0.05867419
Pt      12.63582884       7.16253756       2.11003808        3       0.00000000       0.04697550      -0.09369835      -0.03568851
Ni       0.05000008       1.49875127       4.27885354        6       1.00000000       0.09823418       0.01324827      -0.04859993
Ni       2.47332625       1.45414295       4.21810650        5       1.00000000      -0.01139506      -0.01175889      -0.08614069
Pt       5.05335788       1.38187683       4.20463201        5       0.00000000      -0.06797249      -0.12782680       0.07119099
Ni       7.61293875       1.45583604       4.29245630        6       1.00000000       0.06613032      -0.04408144      -0.10391874
Ni       1.26495689       3.62236819       4.26652753        6       1.00000000       0.03890510      -0.02977834      -0.09403970
Ni       3.74107218       3.67448417       4.22537362        5       1.00000000      -0.03506492      -0.02688952      -0.10046954
Pt       6.35303610       3.64634274       4.31427540        6       0.00000000       0.02781975       0.02303817       0.10314894
Ni       8.90337348       3.62976939       4.27706857        6       1.00000000       0.05615314       0.07500583      -0.15134391
Ni       2.50499632       5.73418403       4.28651921        6       1.00000000      -0.03884336      -0.05989637      -0.10842449
Ni       5.05022911       5.78562681       4.29131510        6       1.00000000       0.05033834      -0.02884959      -0.07957359
Ni       7.60033857       5.82330640       4.25454735        6       1.00000000       0.09832355       0.05818795      -0.10292509
Ni      10.13366828       5.73579506       4.26923732        6       1.00000000      -0.00587742      -0.15108103      -0.04031160
Pt       3.81635058       7.92290639       4.24326059        5       0.00000000       0.05102162       0.01062811       0.18532530
Ni       6.35582080       7.96079539       4.19759567        5       1.00000000       0.04088934       0.04025286      -0.08099952
Ni       8.80980854       7.94304656       4.23937773        5       1.00000000      -0.17544190       0.02333781      -0.09599111
Ni      11.34963283       7.91138692       4.27548228        6       1.00000000       0.00366010      -0.13357654      -0.02708617
Pt       0.00633217      -0.00664829       6.44428372        8       0.00000000      -0.03838002       0.11495223       0.31671921
Pt       2.55790080      -0.02980096       6.38853846        8       0.00000000      -0.02961765       0.06276264       0.15832323
Ni       5.06100881      -0.04487514       6.29542363        7       1.00000000      -0.03358981      -0.03751670       0.40888279
Pt       7.50625455      -0.02271563       6.44456597        8       0.00000000      -0.02923763       0.07923464       0.37953500
Ni       1.24146942       2.22600338       6.34821880        7       1.00000000       0.05654372      -0.00564771      -0.19211495
Pt       3.79313678       2.26486726       6.33382884        7       0.00000000      -0.11372384       0.16653911       0.61863456
Ni       6.34801781       2.19600191       6.40253660        8       1.00000000      -0.03059611       0.04456272       0.03390272
Ni       8.85120425       2.21980040       6.26372247        7       1.00000000      -0.03312525      -0.01803790       0.28239280
Ni       2.50029989       4.39021057       6.34653015        7       1.00000000       0.00861752      -0.04903678      -0.28174954
Ni       5.06611946       4.39817881       6.38310521        8       1.00000000      -0.09340827      -0.00746607      -0.04417379
Ni       7.58903899       4.31010600       6.39403407        8       1.00000000       0.12364313      -0.01704548      -0.03816220
Ni      10.14503518       4.29271835       6.36141257        8       1.00000000      -0.02629996      -0.00157366      -0.32202142
Ni       3.78978031       6.44549380       6.36246222        8       1.00000000      -0.03933982       0.05261522      -0.11059091
Ni       6.29679235       6.45306632       6.34998976        7       1.00000000       0.05319350       0.09667896      -0.20455370
Pt       8.88619669       6.42444599       6.37375296        8       0.00000000       0.01478823      -0.06915648       0.02924085
Ni      11.39680475       6.45704024       6.34672746        7       1.00000000       0.00083116      -0.01414953      -0.14283017
