64
Lattice="10.405305278223153 0.002745920512506317 0.03344004548356859 5.205030676032181 8.959145930213763 -0.0027760304145290314 0.0 0.0 21.612130409319562" Properties=species:S:1:pos:R:3:tags:I:1:initial_magmoms:R:1:forces:R:3 unique_id=d81e22fded3743f5997dce44bf33a8a2 energy=-379.15802759278085 stress="0.006022786729190342 0.00022648390748572579 0.0004939793525693808 0.00022648390748572579 0.005749535196314238 1.200201159511839e-05 0.0004939793525693808 1.200201159511839e-05 -0.0017426096746539985" pbc="T T T"
Ni      -0.03392322       0.00690757       0.10344858        1       1.00000000      -0.21471481      -0.05959458      -0.10877431
Ni       2.62769657      -0.01128461       0.11405407        1       1.00000000       0.22486812      -0.09592802      -0.24842428
Ni       5.20646251      -0.02035774       0.11195622        1       1.00000000       0.01119794       0.15948383      -0.23439725
Ni       7.82884612      -0.03696463       0.06578195        1       1.00000000       0.01458791      -0.07615223       0.50005045
Ni       1.29314399       2.25114686       0.08571205        1       1.00000000       0.04613617       0.08486616      -0.27267603
Pt       3.85095533       2.24235291       0.13437482        1       0.00000000      -0.00537823      -0.03092808      -0.47580907
Pt       6.51199511       2.16505736       0.10218955        1       0.00000000      -0.08807696      -0.14881145      -0.60421453
Ni       9.13159950       2.20922925       0.09448303        1       1.00000000      -0.00299280      -0.15417179      -0.02076708
Ni       2.59253027       4.49445675       0.00000000        0       1.00000000      -0.02198568      -0.02085534       0.26329784
Ni       5.19793937       4.48355281       0.10009000        1       1.00000000       0.16762337      -0.08914628      -0.18014178
Pt       7.88015488       4.50777207       0.02087802        0       0.00000000       0.00610814       0.02704476      -0.00352802
Ni      10.43768166       4.49682168       0.01142937        0       1.00000000       0.05625547       0.05326035       0.26105698
Ni       3.87710757       6.74141815       0.10288550        1       1.00000000      -0.06816234       0.17944649      -0.00602157
Pt       6.48911103       6.76877726       0.14265849        1       0.00000000      -0.05913549       0.04627733      -0.48946900
Ni       9.13575302       6.73500367       0.02714540        0       1.00000000      -0.03306167      -0.01152088       0.26753131
Ni      11.72436408       6.72922177       0.01848441        0       1.00000000       0.13142948       0.06971133       0.31638702
Pt       1.30968643       0.70622935       2.09299959        2       0.00000000       0.00684973      -0.04471628       0.08685369
Ni       3.93376939       0.74999502       2.17863504        3       1.00000000       0.13248966       0.00963088       0.24209456
Ni       6.51521534       0.72400050       2.20766035        3       1.00000000       0.03735653      -0.00754712       0.21606589
Ni       9.08443541       0.70924549       2.16739023        3       1.00000000      -0.11743978      -0.07496679      -0.02068926
Ni       2.62224979       2.99344949       2.17491053        3       1.00000000      -0.00970529       0.13072348       0.21351713
Ni       5.19072376       2.96173986       2.21208375        3       1.00000000      -0.00993206      -0.09038646       0.35719163
Pt       7.81204171       2.95369531       2.23602591        3       0.00000000      -0.03098443      -0.06222804       0.06452280
Pt      10.39820991       2.97723373       2.17079397        3       0.00000000       0.03390033       0.10556076       0.12506348
Pt       3.93003921       5.20907084       2.12005806        2       0.00000000       0.01058396      -0.07088569       0.01529987
Ni       6.53455190       5.23164418       2.18562934        3       1.00000000       0.11741044      -0.06984208       0.22944023
Ni       9.09155087       5.25047118       2.21662699        3       1.00000000      -0.08331167       0.04110734       0.23142127
Pt      11.71805175       5.25478521       2.14663275        2       0.00000000      -0.01324401       0.03962512       0.00927276
Ni       5.17797534       7.47319681       2.14548274        2       1.00000000      -0.14700120      -0.00135254       0.10855215
Ni       7.83001892       7.43387127       2.17441252        3       1.00000000       0.09495305      -0.13327441       0.17030640
Pt      10.39146426       7.48636295       2.09596666        2       0.00000000      -0.00438190      -0.00903192      -0.05649009
Ni      13.03218301       7.50071625       2.15138789        3       1.00000000      -0.02416087       0.12260873      -0.08998159
Ni      -0.01840247       1.51732282       4.33474083        4       1.00000000       0.01659292       0.12287604      -0.22005598
Pt       2.65019622       1.53395174       4.25786615        4       0.00000000       0.02541861       0.02640330      -0.12967819
Ni       5.23482016       1.49071818       4.31234867        4       1.00000000       0.03246509      -0.00515342      -0.43741216
Ni       7.83728217       1.48705060       4.34468854        4       1.00000000       0.03212113       0.01090578      -0.26652485
Pt       1.28984048       3.80604185       4.37356549        5       0.00000000      -0.03817773       0.03477934       0.03606107
Ni       3.91273793       3.73517453       4.32929838        4       1.00000000      -0.00307560       0.02486687      -0.27254130
Pt       6.53980470       3.71607541       4.32288564        4       0.00000000      -0.08467277       0.01813330       0.00293085
Ni       9.12484651       3.75860702       4.38640555        5       1.00000000       0.03280018       0.07180886      -0.19344585
Ni       2.59117159       5.95216419       4.36529240        5       1.00000000      -0.00634513       0.05423502      -0.14055830
Pt       5.19069799       5.93810342       4.28309750        4       0.00000000      -0.10692126       0.03644807      -0.11443292
Ni       7.88248274       5.91747669       4.34112945        4       1.00000000       0.13224495      -0.11340459      -0.28938065
Ni      10.39448601       5.94322635       4.41371295        5       1.00000000      -0.06598047       0.04919791      -0.07696463
Pt       3.88838558       8.25575648       4.25635939        4       0.00000000       0.03409382       0.11472621      -0.13287304
Pt       6.51971497       8.19338748       4.27836166        4       0.00000000       0.02133348       0.06504930      -0.10512033
Pt       9.13278067       8.13824703       4.32469561        4       0.00000000      -0.04775550      -0.03679851      -0.05114665
Pt      11.74167806       8.19464592       4.34115174        4       0.00000000      -0.02626810      -0.03085192      -0.06019974
Pt      -0.03423738      -0.00669747       6.58149810        7       0.00000000       0.06915799       0.08311095       0.18878809
Pt       2.64542752      -0.04085117       6.61213041        7       0.00000000       0.00238134      -0.00379152       0.41333927
Pt       5.27428347      -0.11408513       6.60734984        7       0.00000000      -0.04106277       0.01635231       0.23592176
Ni       7.81227115      -0.02016178       6.56154053        7       1.00000000      -0.00983100       0.02772178      -0.19404241
Pt       1.29668535       2.31549635       6.58524476        7       0.00000000      -0.12648249      -0.08710165       0.18709711
Pt       3.91615500       2.25733244       6.47654110        6       0.00000000       0.18965895      -0.12467528       0.52561149
Pt       6.55548359       2.18905461       6.47348996        6       0.00000000      -0.09108190      -0.12270207       0.67379668
Pt       9.11224496       2.30080463       6.52674005        6       0.00000000       0.06027734       0.14591502      -0.07779234
Ni       2.57340824       4.50271204       6.52403131        6       1.00000000      -0.04407755       0.08647754      -0.18136102
Pt       5.20245259       4.47349310       6.57539875        7       0.00000000      -0.02250706      -0.02029330       0.33062636
Ni       7.87959348       4.48852073       6.45319277        6       1.00000000       0.09810639       0.08004003       0.02221131
Ni      10.40797350       4.54075225       6.54251509        6       1.00000000      -0.11210575       0.11643821      -0.33759565
Pt       3.78676715       6.70044388       6.57510984        7       0.00000000      -0.00938132      -0.05670020      -0.02436540
Pt       6.59643734       6.64796209       6.49624128        6       0.00000000       0.03961195      -0.08633504       0.45910979
Ni       9.16548403       6.63587376       6.53576335        6       1.00000000       0.02833099      -0.11991537      -0.29341227
Ni      11.69693590       6.65342423       6.55098469        7       1.00000000      -0.13694988      -0.19576955      -0.34313166
