64
Lattice="10.795912651564395 0.0008449811263940278 0.0018952499391325607 5.39868810090337 9.342110511052496 -0.006561589973167627 0.0 0.0 21.90510542176441" Properties=species:S:1:pos:R:3:tags:I:1:initial_magmoms:R:1:forces:R:3 unique_id=f2ea92191cc44adda785a237a0b0a4d6 energy=-407.06308600172645 stress="0.0010886683149755154 -1.4886873806626126e-05 1.199699858026622e-06 -1.4886873806626126e-05 0.0011122056752426376 3.0493548298423704e-05 1.199699858026622e-06 3.0493548298423704e-05 -0.004059288510532168" pbc="T T T"
Pt       0.00166702      -0.01265139       0.02908980        0       0.00000000      -0.02479332      -0.12566016      -0.23699099
Pt       2.69763557      -0.01199097       0.02810221        0       0.00000000       0.02864246      -0.11511997      -0.24310512
Pt       5.39640921      -0.00026741       0.00613859        0       0.00000000       0.01850667       0.03575712      -0.34371726
Pt       8.09851498      -0.00049950       0.00886008        0       0.00000000      -0.02171476       0.02391018      -0.32956510
Pt       1.34987251       2.32895468       0.00885467        0       0.00000000       0.02884495      -0.02971667      -0.21021307
Pt       4.04813186       2.33507508       0.00296525        0       0.00000000       0.02382905       0.00635380      -0.19694095
Pt       6.74778095       2.33556235       0.00000000        0       0.00000000      -0.02286375       0.00244019      -0.34135482
Pt       9.44733236       2.33332313       0.00776097        0       0.00000000      -0.02476640      -0.01763630      -0.29345530
Pt       2.70352094       4.67169914       0.00201110        0       0.00000000       0.04046934      -0.01660373      -0.19007460
Pt       5.39941836       4.67369854       0.00606922        0       0.00000000       0.00665602      -0.03640731      -0.15825157
Pt       8.09425221       4.67525329       0.00834689        0       0.00000000      -0.03592149      -0.02414196      -0.26592294
Pt      10.79394608       4.67360598       0.00621512        0       0.00000000      -0.01261230      -0.00381653      -0.28713834
Pt       4.06127931       7.01180981       0.02038749        0       0.00000000       0.13794046       0.05453543      -0.18163753
Pt       6.74799324       7.02008431       0.04718697        0       0.00000000      -0.00616869       0.15635790      -0.12650119
Pt       9.43485448       7.01254818       0.02192851        0       0.00000000      -0.13329976       0.08572994      -0.22674099
Pt      12.14625549       7.00902019       0.00705902        0       0.00000000       0.00794007       0.02839995      -0.25162005
Pt       1.35230490       0.70339344       2.30076391        1       0.00000000       0.01110552      -0.12585541       0.42365409
Pt       4.02525617       0.74750750       2.29996801        1       0.00000000      -0.04585776      -0.03243620       0.45925042
Pt       6.74527388       0.77404892       2.30189788        1       0.00000000      -0.01516605      -0.00847316       0.51284668
Pt       9.47074466       0.74496815       2.30166305        1       0.00000000       0.04667990      -0.04346111       0.47639396
Pt       2.71137879       3.11212982       2.32182981        1       0.00000000       0.01286737      -0.03834692       0.52368702
Pt       5.38662374       3.12784875       2.32365187        1       0.00000000      -0.00772472       0.06549969       0.53310831
Pt       8.09282030       3.12143127       2.29985991        1       0.00000000      -0.03998490       0.05933549       0.52646062
Pt      10.80147941       3.10521984       2.29889268        1       0.00000000       0.03123944      -0.05613838       0.51775290
Pt       4.07204402       5.46634045       2.31784894        1       0.00000000       0.04453628       0.02695651       0.46233606
Pt       6.74479242       5.52253204       2.29765282        1       0.00000000      -0.01949468       0.14308704       0.42866629
Pt       9.42252940       5.48089022       2.29413704        1       0.00000000      -0.05458575       0.04534352       0.46283573
Pt      12.14820274       5.45420186       2.29551371        1       0.00000000      -0.00011811       0.02792079       0.47562170
Ni       5.41599791       7.78345203       2.27353610        1       1.00000000       0.04236471      -0.01888128       0.51762127
Ni       8.07977845       7.78403645       2.27092917        1       1.00000000      -0.05382628      -0.00624930       0.51006470
Pt      10.76447231       7.78417626       2.29333633        1       0.00000000      -0.02228135       0.00280911       0.48598049
Pt      13.53102069       7.78010889       2.29693702        1       0.00000000       0.03970493      -0.02327624       0.49009157
Pt       0.01042166       1.54977662       4.59758731        3       0.00000000       0.05719691      -0.01786801      -0.49506654
Pt       2.71450936       1.57786998       4.59865482        3       0.00000000      -0.00643920      -0.01111886      -0.46358615
Pt       5.37841975       1.58219025       4.59887079        3       0.00000000      -0.02714992       0.01496815      -0.47288133
Pt       8.09414246       1.55403278       4.59941785        3       0.00000000      -0.02067542       0.00156245      -0.50484368
Pt       1.38737367       3.88809653       4.60146535        3       0.00000000       0.03576993      -0.00725748      -0.46640172
Ni       4.05072017       3.88935526       4.62323658        3       1.00000000       0.01221644       0.01280088      -0.51802841
Pt       6.71133208       3.89663598       4.59560610        3       0.00000000      -0.04276481       0.05110943      -0.48776914
Pt       9.44514341       3.89289914       4.60054203        3       0.00000000      -0.01056615       0.01643453      -0.52133721
Pt       2.72295419       6.19374593       4.59836026        3       0.00000000       0.04072848      -0.03398060      -0.45436448
Pt       5.38478984       6.20940183       4.57410335        3       0.00000000      -0.00503169      -0.00800875      -0.45170429
Pt       8.08979851       6.23636880       4.57352019        3       0.00000000      -0.03475458      -0.00830795      -0.47992613
Pt      10.80081509       6.22300431       4.60181937        3       0.00000000       0.03043994      -0.01820164      -0.47586251
Pt       4.06614062       8.54558576       4.56941969        3       0.00000000       0.04029709      -0.04615024      -0.51532269
Pt       6.74864807       8.54372698       4.53854499        2       0.00000000      -0.00780071      -0.05464472      -0.60448523
Pt       9.43198190       8.56062984       4.57216212        3       0.00000000      -0.03591479       0.03769064      -0.50276695
Pt      12.14669054       8.55944586       4.59398387        3       0.00000000       0.00578009      -0.00399428      -0.52381620
Pt       0.00088785      -0.00708516       6.90510542        4       0.00000000       0.01466614      -0.03400638       0.22480392
Pt       2.70090965      -0.00372087       6.90089701        4       0.00000000      -0.03960756      -0.02393650       0.16391783
Pt       5.39819502      -0.00178599       6.89738803        4       0.00000000      -0.01627018       0.00097041       0.25069729
Pt       8.09796449      -0.00460555       6.90273711        4       0.00000000       0.03651659      -0.00756787       0.31323426
Pt       1.35200364       2.33083669       6.89655419        4       0.00000000      -0.02501139      -0.03270372       0.32025369
Pt       4.04958283       2.34249204       6.87652993        4       0.00000000      -0.00471921       0.13334337       0.23315242
Pt       6.74732987       2.33225256       6.89377001        4       0.00000000       0.02428205      -0.00971025       0.29672470
Pt       9.44793692       2.33111628       6.89972091        4       0.00000000       0.00497147      -0.02416360       0.33481880
Pt       2.71058636       4.66031307       6.87629747        4       0.00000000       0.12844895      -0.05924647       0.26328032
Pt       5.38965380       4.66088277       6.87772205        4       0.00000000      -0.11637819      -0.03228092       0.21060714
Pt       8.09478741       4.66572007       6.89609426        4       0.00000000      -0.01884644       0.02158745       0.25771585
Pt      10.80033215       4.66569802       6.89565187        4       0.00000000      -0.00052049      -0.01150625       0.30352475
Pt       4.05200523       7.00155504       6.89516210        4       0.00000000       0.03030797       0.04847747       0.22773369
Pt       6.74704377       7.00242567       6.89732260        4       0.00000000      -0.01616859       0.03796748       0.08521916
Pt       9.44610314       7.00308017       6.89812016        4       0.00000000      -0.03352147       0.01756465       0.23879769
Pt      12.14952177       7.00000776       6.89380897        4       0.00000000       0.02037166       0.00796152       0.29053916
