64
Lattice="10.320703831175173 -0.011139348802420065 0.025450328744248452 5.150704956543076 8.855411488665474 0.017512893526902936 0.0 0.0 21.55893582856501" Properties=species:S:1:pos:R:3:tags:I:1:initial_magmoms:R:1:forces:R:3 unique_id=d38b10acd445423eb15161ae1458cdba stress="0.005193540115367459 -1.3514523537081788e-06 0.0003085002567334092 -1.3514523537081788e-06 0.004991117251035235 0.00013470650382963798 0.0003085002567334092 0.00013470650382963798 -0.0022686649000992574" energy=-374.6198296215235 pbc="T T T"
Ni       0.00359081       0.02554226       0.12153987        1       1.00000000       0.10122017      -0.00787992      -0.23041965
Ni       2.57899126       0.00708571       0.15908264        2       1.00000000      -0.02954105       0.03159065      -0.15426220
Ni       5.15752947      -0.01432104       0.11155247        1       1.00000000      -0.01138546       0.20263616      -0.39841504
Ni       7.74710596      -0.04784286       0.14238699        1       1.00000000      -0.08683450      -0.09561417      -0.28082782
Ni       1.25885583       2.22033680       0.04748167        0       1.00000000      -0.08461698       0.02104268       0.42760083
Pt       3.80485903       2.21909719       0.05321405        1       0.00000000       0.01204019      -0.01873810       0.00116115
Pt       6.47315828       2.16025117       0.06542901        1       0.00000000       0.05717532      -0.06937004      -0.03532546
Ni       9.07299685       2.20886156       0.10654663        1       1.00000000       0.06300689       0.12640345      -0.11474363
Ni       2.55461690       4.44504340       0.00000000        0       1.00000000      -0.04989369      -0.03189638       0.13579835
Ni       5.15108537       4.43297868       0.11351720        1       1.00000000       0.18268235      -0.08038399      -0.37201025
Pt       7.81522532       4.43447204       0.06461406        1       0.00000000       0.04463851       0.00363619      -0.03083011
Ni      10.34596908       4.41290916       0.03840252        0       1.00000000       0.02675295      -0.09485620       0.19047562
Ni       3.82868759       6.66141756       0.03999061        0       1.00000000      -0.01729598       0.13621121       0.25475528
Pt       6.42219231       6.68969201       0.15670048        2       0.00000000      -0.00594351       0.04127700      -0.66726708
Ni       9.04807372       6.65154798       0.04364628        0       1.00000000      -0.08957847      -0.00321955       0.09271180
Ni      11.62283811       6.63478069       0.03155490        0       1.00000000       0.09529621       0.03036711       0.18476516
Ni       1.30739206       0.76834989       2.10760808        3       1.00000000       0.02022900       0.16684916      -0.01094470
Ni       3.86135611       0.76249993       2.15076385        4       1.00000000       0.00772534       0.09890180       0.18403966
Ni       6.44828485       0.76141192       2.18106182        4       1.00000000      -0.04045557       0.17120443       0.22368011
Pt       9.04003952       0.77717166       2.14225780        3       0.00000000      -0.02534520       0.14584240       0.14613849
Ni       2.56185537       2.92400782       2.15361881        4       1.00000000      -0.06337591      -0.06502219       0.05090412
Ni       5.16676525       2.91883792       2.18890263        4       1.00000000      -0.02502184      -0.13135542       0.20622990
Ni       7.75799566       2.95902297       2.19684225        4       1.00000000       0.06283814       0.06455073       0.16919884
Ni      10.32126260       2.93438047       2.17573723        4       1.00000000       0.02149511      -0.02037351       0.07972921
Pt       3.88255437       5.14329049       2.11120100        3       0.00000000       0.01337062      -0.08582106      -0.01657457
Ni       6.48836026       5.14668792       2.18261202        4       1.00000000       0.11627210      -0.07794221       0.16106596
Ni       9.00338145       5.13751901       2.19970505        4       1.00000000      -0.06947884      -0.12628227       0.21992642
Pt      11.58954678       5.09139204       2.14028988        3       0.00000000      -0.05423695      -0.10864620       0.04079361
Ni       5.14680962       7.39792439       2.15173138        4       1.00000000      -0.11673517       0.02212082       0.06026907
Ni       7.74009129       7.37637429       2.16516333        4       1.00000000       0.04603389      -0.04731083       0.10333647
Pt      10.29420255       7.38814022       2.08160114        3       0.00000000      -0.00189359      -0.08568942      -0.07464531
Ni      12.90541858       7.37077107       2.14137997        3       1.00000000       0.01424364      -0.03695121       0.00301457
Ni       0.00207546       1.55548703       4.29056566        6       1.00000000      -0.01642643       0.13125618      -0.17595734
Pt       2.58222437       1.59449615       4.26753398        6       0.00000000      -0.02884017      -0.02467174      -0.07499162
Ni       5.17248422       1.50855242       4.30548874        6       1.00000000      -0.02851067       0.02501616      -0.23912313
Ni       7.76325783       1.49773059       4.31155514        6       1.00000000       0.09485148      -0.09925399      -0.22633702
Ni       1.29229933       3.68840702       4.34322471        6       1.00000000      -0.04709058       0.00016522      -0.07724073
Ni       3.85054008       3.69147793       4.31932072        6       1.00000000      -0.00138618       0.04763449      -0.21596098
Pt       6.50772455       3.62704676       4.27057103        6       0.00000000      -0.00439841      -0.00644003      -0.12994926
Ni       9.04898710       3.66160014       4.29652923        6       1.00000000       0.05321191      -0.14892986      -0.35342348
Ni       2.56717781       5.85240803       4.36406063        7       1.00000000      -0.02025209      -0.14739761      -0.01225858
Pt       5.13873832       5.85022402       4.28023988        6       0.00000000       0.00928461      -0.06040443      -0.08452498
Ni       7.77082863       5.85114177       4.30197348        6       1.00000000       0.00330029      -0.08820360      -0.31123311
Pt      10.31688892       5.79384244       4.40423180        7       0.00000000       0.00809718      -0.01393509      -0.00979563
Pt       3.85719351       8.13015502       4.28278271        6       0.00000000      -0.03100143       0.01095896       0.03016964
Pt       6.45089257       8.14858032       4.20420536        5       0.00000000      -0.08600773       0.13611138      -0.20558345
Pt       9.02101005       8.11260664       4.29193228        6       0.00000000      -0.09436578       0.03046827      -0.08061914
Pt      11.62149054       8.13145208       4.27984654        6       0.00000000       0.04071951       0.00867835      -0.10012676
Pt       0.01974678       0.02468971       6.52150072        9       0.00000000       0.03761699       0.13992316       0.36302706
Pt       2.60591077       0.05604228       6.55582284       10       0.00000000       0.01578220       0.03576581       0.40699186
Pt       5.17390534       0.00592374       6.52768273        9       0.00000000      -0.02020942       0.16564549       0.43966304
Pt       7.73883854      -0.03351394       6.55893583       10       0.00000000      -0.00631563       0.17115258       0.39855383
Ni       1.31369249       2.29556056       6.45819278        9       1.00000000      -0.00482038       0.14102217      -0.25165851
Ni       3.85957782       2.24516616       6.39259249        8       1.00000000      -0.04338180      -0.05613504       0.11945635
Ni       6.46250063       2.21750965       6.40012448        8       1.00000000       0.00866559      -0.12032870       0.17499375
Pt       9.05378378       2.31204493       6.46272375        9       0.00000000      -0.01194662      -0.04408036       0.03382172
Ni       2.54639835       4.42973194       6.44787955        8       1.00000000      -0.06929430      -0.04123312      -0.34888724
Pt       5.10014428       4.35185890       6.51853622        9       0.00000000      -0.04760792      -0.04181116       0.22568098
Ni       7.78153732       4.43026969       6.39976267        8       1.00000000       0.02423638       0.09111230       0.01891406
Ni      10.36142463       4.43109504       6.50043604        9       1.00000000       0.07906638      -0.05373468      -0.16401763
Ni       3.82730693       6.59866536       6.48250497        9       1.00000000      -0.05691314      -0.10835578      -0.16076687
Pt       6.50668244       6.58065363       6.44700945        8       0.00000000       0.09131003      -0.09145169       0.68256957
Ni       9.07077903       6.58189208       6.50004006        9       1.00000000      -0.01435323      -0.04923481      -0.05790471
Ni      11.62821867       6.57007885       6.50542964        9       1.00000000       0.05359163      -0.01458993      -0.16281050
