64
Lattice="10.421660356675176 0.00040627066341452413 0.09145339524257073 5.211182019052916 9.067718105052911 0.01989788130479766 0.0 0.0 21.71069867335081" Properties=species:S:1:pos:R:3:tags:I:1:initial_magmoms:R:1:forces:R:3 unique_id=3ceb4b0507724f43ac7bddd3b510661b energy=-383.43164997350635 stress="0.005507148537583776 7.474226089046121e-05 0.0005222151007617905 7.474226089046121e-05 0.005942142687277852 -0.00014104298553583263 0.0005222151007617905 -0.00014104298553583263 -0.0024916941252864557" pbc="T T T"
Pt      -0.07875898       0.01754624       0.05652706        1       0.00000000      -0.18316339      -0.15169036      -0.65754410
Ni       2.63777064      -0.02806962       0.00000000        0       1.00000000       0.04696587      -0.09176647       0.33838180
Ni       5.24121770      -0.04469905       0.09743439        1       1.00000000       0.09716169       0.09869523      -0.20812850
Ni       7.80497849      -0.04511879       0.08376122        1       1.00000000      -0.06763150      -0.08681996       0.49505406
Ni       1.29614130       2.26029191       0.06066066        1       1.00000000       0.06348086       0.02408553      -0.33792011
Pt       3.91334050       2.22670730       0.03566040        0       0.00000000       0.20144865       0.09479221      -0.84121154
Pt       6.56615707       2.18682102       0.09900270        1       0.00000000      -0.13302774      -0.10820512      -0.17698555
Ni       9.13628582       2.26319606       0.05122720        1       1.00000000       0.00524562      -0.07710589       0.26390351
Pt       2.59357092       4.58758927       0.00981000        0       0.00000000       0.05253876      -0.01017058      -1.09011428
Ni       5.24304324       4.52945880       0.08395128        1       1.00000000       0.14219209      -0.13377524      -0.02582328
Pt       7.89854315       4.54188697       0.11097653        1       0.00000000      -0.00468528       0.07723000      -0.10198448
Ni      10.42936973       4.55452137       0.03910308        0       1.00000000       0.04762931       0.09909832       0.29308610
Ni       3.89317237       6.83117091       0.09779711        1       1.00000000      -0.05916729       0.13352135      -0.07967282
Pt       6.53831560       6.81370258       0.14986753        1       0.00000000      -0.03088819       0.02266244      -0.32837876
Ni       9.16082587       6.81244491       0.04192742        0       1.00000000      -0.02103379      -0.04980154       0.40715470
Ni      11.72512071       6.83646771       0.04655558        0       1.00000000       0.12049033      -0.00348017       0.36272765
Pt       1.31631982       0.68553486       2.13680274        2       0.00000000       0.16383166      -0.03079483       0.19794380
Pt       4.00729058       0.73544211       2.20748423        3       0.00000000       0.07044109      -0.06689561       0.22883225
Ni       6.57471967       0.73010832       2.23554579        3       1.00000000       0.06164415      -0.04697618       0.16210086
Ni       9.06582871       0.73068503       2.23437382        3       1.00000000      -0.15566359       0.04484556       0.07701127
Pt       2.65895405       3.04271368       2.21229234        3       0.00000000      -0.07868288       0.01565662       0.41904456
Ni       5.25475342       3.02671641       2.25816808        4       1.00000000       0.03988738       0.07172753       0.38074897
Pt       7.77198119       3.00696154       2.34176656        4       0.00000000      -0.02706354      -0.00405224       0.17009221
Pt      10.36341312       3.02552002       2.16572808        3       0.00000000      -0.06542739       0.03148365       0.02803462
Pt       4.02095050       5.32587418       2.14707835        2       0.00000000       0.19408980       0.07734411       0.15018324
Ni       6.58287288       5.28579171       2.23210137        3       1.00000000       0.09886180      -0.04151445       0.28632508
Ni       9.09594156       5.31473941       2.26806680        4       1.00000000      -0.08327879       0.04668016       0.18063899
Pt      11.68630626       5.34094390       2.23353477        3       0.00000000      -0.06065470       0.01902100       0.13565598
Ni       5.21373664       7.55115066       2.18129036        3       1.00000000      -0.00137366      -0.00032465       0.27047297
Ni       7.84903219       7.49124915       2.21958663        3       1.00000000       0.08672667      -0.09397020       0.18214515
Pt      10.43272717       7.53930584       2.14862219        2       0.00000000      -0.03636092       0.08005381       0.06849225
Ni      13.06213979       7.60605487       2.20547261        3       1.00000000       0.00105951       0.06543265      -0.02647620
Pt      -0.08390665       1.56641286       4.35173950        6       0.00000000      -0.13886327       0.12114350      -0.23698720
Pt       2.66979766       1.50524636       4.39966033        6       0.00000000      -0.18961626      -0.04753413      -0.16257783
Ni       5.29693072       1.54522172       4.37211561        6       1.00000000       0.01464350       0.09282598      -0.34254400
Ni       7.82299080       1.52872593       4.40885756        6       1.00000000      -0.05076244       0.03754029      -0.16288623
Pt       1.24238614       3.81633892       4.38797263        6       0.00000000      -0.15110922      -0.00778002      -0.22234418
Ni       4.00167942       3.74473006       4.38100172        6       1.00000000       0.08023355      -0.02536418      -0.33613750
Ni       6.55975752       3.73606866       4.40733943        6       1.00000000      -0.07799744      -0.02722992      -0.21091779
Ni       9.11057156       3.80769288       4.41970285        6       1.00000000      -0.12830878       0.03586795      -0.24174312
Pt       2.60517249       6.05507283       4.35613299        6       0.00000000      -0.03071915       0.06833605      -0.20350239
Pt       5.32478428       5.94959282       4.34375876        5       0.00000000      -0.01100910      -0.12338687      -0.19678536
Ni       7.90812899       5.97185322       4.37585684        6       1.00000000       0.06379440      -0.12519258      -0.27553148
Ni      10.39838914       6.01325124       4.49903619        7       1.00000000      -0.05734574      -0.00682008      -0.03270958
Pt       3.91786046       8.32663236       4.29001690        5       0.00000000      -0.03385506      -0.03079447      -0.24222674
Pt       6.57060652       8.25507774       4.35588331        6       0.00000000      -0.01088496       0.04659412      -0.24004078
Pt       9.16257907       8.20906578       4.46470272        7       0.00000000      -0.01439134      -0.02772558      -0.06638851
Pt      11.74963595       8.37063024       4.42720802        6       0.00000000      -0.06790727       0.06298226      -0.09558524
Pt      -0.00027568       0.01977685       6.55714741        9       0.00000000      -0.01200212      -0.04334010       0.62382789
Ni       2.66589863      -0.02586235       6.61990844        9       1.00000000      -0.07030725       0.06134527      -0.13734006
Pt       5.25883423      -0.11347975       6.71069867       10       0.00000000       0.02001497       0.22929361      -0.04501381
Ni       7.85000385      -0.01316890       6.65791591       10       1.00000000      -0.01408547      -0.01432780      -0.31679756
Pt       1.27850007       2.27213405       6.67160484       10       0.00000000       0.01876787       0.01991120       0.22128902
Pt       3.97142967       2.21211910       6.52451671        8       0.00000000       0.17500699       0.09290756       0.89047922
Pt       6.64267802       2.19501804       6.52129613        8       0.00000000      -0.08500528      -0.02425657       0.30256139
Ni       9.16319023       2.26220519       6.66249500       10       1.00000000      -0.00337067       0.02123790      -0.23561069
Pt       2.58618020       4.54892055       6.53466366        8       0.00000000       0.23887284      -0.16502563       0.92162522
Pt       5.28387259       4.51029184       6.62079137        9       0.00000000       0.09526759      -0.04259758       0.18074600
Pt       7.98152481       4.51920090       6.52942056        8       0.00000000      -0.15628610       0.01590449       0.14138787
Ni      10.45244916       4.56274245       6.65605087       10       1.00000000      -0.01131009       0.07183386      -0.27719526
Pt       3.88052324       6.83806608       6.67562586       10       0.00000000       0.17276838       0.02048407       0.02474927
Pt       6.65988482       6.81438665       6.59594796        9       0.00000000      -0.03190412      -0.10886621       0.35682624
Ni       9.21501164       6.75925967       6.64071586        9       1.00000000       0.04979492      -0.10740858      -0.27539820
Ni      11.72192707       6.77548480       6.67301504       10       1.00000000      -0.06771650      -0.07554452      -0.33101899
