64
Lattice="10.483889496366888 0.009484324342337768 0.049889737504358836 5.250158414001643 9.126154613821376 0.0031780827069291676 0.040734800095690506 -0.02052192268964411 9.087843889119636" Properties=species:S:1:pos:R:3:tags:I:1:initial_magmoms:R:1:forces:R:3 unique_id=5bc88d3d0974477c8231091dedb4673c stress="0.0010126318339256438 7.899180111465039e-06 2.590653088797798e-06 7.899180111465039e-06 0.0010302904604722954 1.0388688215142885e-05 2.590653088797798e-06 1.0388688215142885e-05 0.0008512904288081949" energy=-410.3020920018807 pbc="T T T"
Pt      -0.09532418      -0.01949985       0.15351631        4       0.00000000      -0.27951299      -0.04234062       0.15062826
Ni       2.65090288      -0.02595808       0.07671359        4       1.00000000       0.12381986      -0.09237508       0.21513386
Ni       5.25657868      -0.03901593       0.15321566        4       1.00000000       0.12504550      -0.15643090       0.27905524
Ni       7.85780777      -0.02388752       0.13023439        4       1.00000000      -0.12739507      -0.23442766       0.33196246
Pt       1.26696860       2.27775994       0.10801834        4       0.00000000      -0.02580309      -0.05888979       0.15426803
Pt       3.95628715       2.21420478       0.12444762        4       0.00000000       0.04633711      -0.08859352       0.18058845
Pt       6.61466058       2.18569217       0.17143199        4       0.00000000       0.19959728      -0.19186920       0.03172689
Ni       9.17148473       2.28123469       0.10314206        4       1.00000000      -0.04752088      -0.03043867       0.22889313
Pt       2.58306830       4.64097338       0.10667615        4       0.00000000       0.03295888       0.13528482       0.11010004
Pt       5.27718574       4.57347789       0.16189822        4       0.00000000       0.21631617      -0.08658065       0.20373393
Pt       7.97002125       4.57974619       0.17669528        4       0.00000000       0.19958983      -0.06587617       0.08551640
Ni      10.48042686       4.59638847       0.09569311        4       1.00000000       0.04372682       0.15386171       0.16781064
Ni       3.91484053       6.87487566       0.15440098        4       1.00000000      -0.08297882       0.08268266       0.36119198
Pt       6.61033429       6.89045357       0.21203544        4       0.00000000       0.13942610       0.04829141       0.20830526
Ni       9.21036379       6.86149280       0.10073349        4       1.00000000       0.13592111       0.03550565       0.17565570
Ni      11.79242940       6.88276072       0.17202191        4       1.00000000       0.04859990       0.17413046       0.24070753
Pt       1.30595163       0.66804807       2.28429121        3       0.00000000      -0.02218140      -0.03008560      -0.16521123
Pt       4.01129025       0.72757998       2.30972845        3       0.00000000       0.08415190       0.10349285       0.11561619
Ni       6.59462564       0.74679539       2.32301738        3       1.00000000       0.13879017      -0.08379934       0.08191018
Ni       9.13250205       0.74189514       2.31753119        3       1.00000000      -0.26911095       0.02324435       0.00502277
Pt       2.65776219       3.04897543       2.31175422        3       0.00000000      -0.06546746       0.06427187      -0.11172479
Ni       5.28922348       3.03040217       2.33029493        3       1.00000000       0.08869334      -0.05667751       0.05139481
Pt       7.81941823       3.03089637       2.42335249        3       0.00000000      -0.19350632      -0.00633621       0.15159395
Pt      10.40530014       3.06448210       2.31184340        3       0.00000000      -0.20404258       0.01922810      -0.15518585
Pt       3.99888217       5.40918850       2.29152236        3       0.00000000      -0.03319076       0.10890181      -0.16854551
Ni       6.60898857       5.33402493       2.32699212        3       1.00000000       0.26798175       0.00898399       0.09900926
Ni       9.15825120       5.35191440       2.34366950        3       1.00000000      -0.18868618       0.13375490       0.24419821
Pt      11.74294831       5.37999820       2.31498700        3       0.00000000      -0.11794187      -0.00866770       0.00349524
Ni       5.24624943       7.59746423       2.27656397        3       1.00000000      -0.02206172       0.05490216       0.00749345
Ni       7.88853920       7.55997557       2.30648279        3       1.00000000       0.12830395      -0.20336306       0.14732691
Pt      10.48851499       7.59845592       2.23561087        3       0.00000000      -0.04789676      -0.03045537      -0.02797929
Ni      13.13566132       7.65992819       2.28486028        3       1.00000000      -0.02837020       0.23296231      -0.15388532
Pt      -0.10061150       1.56423490       4.49962884        2       0.00000000      -0.23212792       0.08376094      -0.09290918
Pt       2.66250133       1.47848150       4.52394062        2       0.00000000      -0.05806711      -0.00200733       0.03298081
Ni       5.31200227       1.52446393       4.51574985        2       1.00000000       0.16113206       0.03646347      -0.23348884
Ni       7.86152544       1.54701652       4.53676164        2       1.00000000      -0.13827939       0.05778578      -0.19290399
Pt       1.22824365       3.84723627       4.52437695        2       0.00000000      -0.14399065       0.10212485      -0.01864995
Pt       4.04361867       3.75109909       4.47134504        2       0.00000000       0.15986052      -0.02929014      -0.02624342
Ni       6.62289959       3.77398177       4.52536096        2       1.00000000       0.14370002      -0.01512221      -0.04133530
Ni       9.15828184       3.82818492       4.55039033        2       1.00000000      -0.18882930       0.17078930      -0.22142641
Pt       2.61125566       6.10421933       4.48043304        2       0.00000000      -0.05692915       0.11363759       0.01148596
Pt       5.36331049       6.04827149       4.45453433        2       0.00000000       0.24521097      -0.05760974       0.02709405
Ni       7.93393045       6.03441115       4.51334399        2       1.00000000       0.17765774      -0.22216047      -0.30335971
Ni      10.45198238       6.06451695       4.57976761        2       1.00000000      -0.21322425      -0.04373398      -0.01067133
Pt       3.92781007       8.39171083       4.43106486        2       0.00000000       0.03859917      -0.02418100      -0.26202657
Pt       6.60607818       8.32286535       4.48397077        2       0.00000000      -0.05503275      -0.08777168      -0.00910683
Pt       9.21309701       8.27191672       4.56267823        2       0.00000000      -0.01336281      -0.21304647      -0.01165574
Pt      11.81350117       8.43951602       4.50978892        2       0.00000000      -0.04453466       0.14145747      -0.13054740
Pt      -0.01108040       0.02268053       6.72797767        1       0.00000000      -0.11163427       0.02243396      -0.15006407
Ni       2.66060264      -0.02885019       6.78213886        1       1.00000000      -0.04450645       0.00695109      -0.16138541
Pt       5.24111849      -0.04091235       6.82230276        1       0.00000000      -0.06528385      -0.04820762       0.14591358
Ni       7.88811094       0.00548306       6.80006651        1       1.00000000      -0.06007802      -0.03836747      -0.18506008
Pt       1.27522284       2.27742306       6.71471529        1       0.00000000      -0.13586803       0.06397737      -0.20401469
Pt       3.96534051       2.22227065       6.71319728        1       0.00000000      -0.00539681       0.02176432      -0.26390537
Pt       6.66235423       2.22528536       6.66289433        1       0.00000000       0.11798226      -0.07632202      -0.10423315
Ni       9.19937780       2.28109984       6.79426944        1       1.00000000      -0.02472289       0.03469779      -0.15933833
Pt       2.60907517       4.55148959       6.71168002        1       0.00000000       0.05645842      -0.00299613      -0.27482456
Pt       5.31680380       4.54461170       6.71146848        1       0.00000000       0.16338825       0.03333976      -0.15445744
Pt       8.00763322       4.55393204       6.66210558        1       0.00000000       0.13871858       0.02163920      -0.06459319
Ni      10.48770011       4.56645825       6.79163654        1       1.00000000      -0.03364438       0.04386630      -0.17709381
Pt       3.93908731       6.87352138       6.80115453        1       0.00000000      -0.05474360       0.02987528       0.08532362
Pt       6.68184137       6.86373420       6.73111075        1       0.00000000       0.13516349       0.08039017       0.01400198
Ni       9.21276586       6.82823708       6.77801877        1       1.00000000       0.01474415      -0.04416639      -0.18274534
Pt      11.74789297       6.82811241       6.83334383        1       0.00000000      -0.13595192      -0.07226399       0.06943336
