64
Lattice="10.111265071664565 0.018757420966290274 0.0005835522629432673 5.071876938898627 8.771945114775681 -0.013088320599490139 0.00047646842748578155 -0.012614876175193478 8.685282868943201" Properties=species:S:1:pos:R:3:tags:I:1:initial_magmoms:R:1:forces:R:3 unique_id=0dca1b1674b949eea2679baeaa91b37d stress="-0.0012111454987670106 2.6805192993786735e-06 1.0276956083813153e-05 2.6805192993786735e-06 -0.0011938820978381892 1.8986494332107164e-06 1.0276956083813153e-05 1.8986494332107164e-06 -0.0009850413538683642" energy=-389.97221988313123 pbc="T T T"
Ni       0.02579552      -0.04298508       0.08757154        4       1.00000000       0.04397836      -0.08765875       0.09688575
Ni       2.48282696       0.00406856       0.15252718        4       1.00000000      -0.04301636       0.08020233       0.09640292
Pt       5.08182218      -0.05030908       0.19412124        4       0.00000000      -0.00646517      -0.12179971       0.36102451
Ni       7.59945545      -0.03270460       0.15986395        4       1.00000000       0.04301013      -0.11825269       0.16916548
Ni       1.26198658       2.20771351       0.11149596        4       1.00000000      -0.02303485       0.11247812       0.22464609
Pt       3.76479277       2.26022182       0.18527257        4       0.00000000      -0.04978777       0.10855877       0.29388390
Ni       6.32751668       2.24263189       0.11378091        4       1.00000000      -0.00481693       0.10410274       0.23434129
Pt       8.85577646       2.25711332       0.14690320        4       0.00000000       0.00177119       0.02259373       0.33047367
Ni       2.51117320       4.42904241       0.10061186        4       1.00000000      -0.02108586       0.07341681       0.17634060
Ni       5.08293237       4.43390150       0.10134414        4       1.00000000      -0.00900635       0.10352983       0.11712466
Ni       7.56407557       4.42830967       0.10478446        4       1.00000000      -0.04964546       0.09984743       0.20279865
Ni      10.14820828       4.43409464       0.10697004        4       1.00000000       0.08415180       0.06715357       0.14192434
Ni       3.80503411       6.56186094       0.09544566        4       1.00000000      -0.00395480      -0.04478868       0.13585541
Ni       6.30296464       6.56374562       0.07224014        4       1.00000000      -0.08041897      -0.03032718       0.01964282
Ni       8.86592391       6.52814187       0.17221847        4       1.00000000       0.10310783      -0.15820444       0.34445753
Ni      11.41245098       6.54263424       0.10836915        4       1.00000000       0.04953892      -0.08034755       0.19012921
Ni       1.28641653       0.76495549       2.15907146        3       1.00000000      -0.00387092       0.10676465      -0.07293985
Ni       3.76040391       0.74325700       2.21290917        3       1.00000000      -0.11939417       0.01223204      -0.12927354
Ni       6.33241792       0.74120244       2.19678980        3       1.00000000       0.03786217      -0.03860190      -0.10114406
Pt       8.83460441       0.67539945       2.21146331        3       0.00000000       0.03983404      -0.00953524      -0.13805264
Ni       2.49764688       2.95632747       2.23748896        3       1.00000000      -0.01134561       0.11343047       0.10543813
Ni       5.07332274       2.97230989       2.17436019        3       1.00000000      -0.05537887       0.14958420      -0.10390505
Ni       7.56592217       2.97067930       2.19699401        3       1.00000000       0.06624902       0.01320057       0.06294597
Ni      10.15854917       2.99378755       2.19775621        3       1.00000000       0.02412119       0.07584525       0.02156023
Ni       3.80339431       5.11024231       2.14779293        3       1.00000000      -0.01194717      -0.05028287      -0.05855345
Ni       6.29962115       5.10601437       2.12882486        3       1.00000000      -0.05809083       0.04264272      -0.02020199
Ni       8.89136368       5.08715338       2.15851908        3       1.00000000       0.04793599      -0.09487867       0.05053161
Ni      11.37861232       5.12172708       2.15665243        3       1.00000000       0.00256704      -0.04268242       0.04115022
Ni       5.04873468       7.25833220       2.16595892        3       1.00000000      -0.06476518      -0.19421137       0.02720636
Pt       7.58236807       7.32586708       2.14195258        3       0.00000000      -0.05429065       0.03221044      -0.07522790
Ni      10.16512615       7.26587289       2.23253717        3       1.00000000       0.03132285      -0.10473643       0.13326169
Ni      12.63393761       7.27552527       2.15365892        3       1.00000000      -0.02534039      -0.16673399      -0.05020177
Pt       0.07022653       1.45474701       4.28416096        2       0.00000000      -0.01405536       0.09212466       0.12560459
Ni       2.52621068       1.47394876       4.25741227        2       1.00000000       0.09569076       0.02278207      -0.13429146
Pt       5.04644319       1.43387794       4.19048143        2       0.00000000      -0.05775915      -0.06169395       0.10938839
Ni       7.58263862       1.44468699       4.29251461        2       1.00000000       0.04072288      -0.04560185      -0.02034234
Ni       1.27555111       3.65730563       4.31131152        2       1.00000000       0.04230555       0.05187187      -0.07426187
Ni       3.76582261       3.68422315       4.25710055        2       1.00000000      -0.00166682       0.00001359      -0.20670129
Pt       6.31540157       3.66139332       4.30407969        2       0.00000000      -0.02655375      -0.00620895       0.00466317
Ni       8.90173447       3.69667180       4.26511310        2       1.00000000       0.11184734       0.03662885      -0.19486751
Pt       2.54006661       5.83412112       4.28970635        2       0.00000000       0.01898414       0.01433530      -0.11070401
Ni       5.04633529       5.87384811       4.31135186        2       1.00000000      -0.00367836      -0.00608630      -0.17568083
Pt       7.59726693       5.86502503       4.28371458        2       0.00000000       0.09796810      -0.01356481       0.11989685
Ni      10.14484823       5.83760033       4.27808404        2       1.00000000      -0.00069581      -0.02920367      -0.10634909
Ni       3.83327863       8.00026982       4.29733994        2       1.00000000       0.05572649      -0.09983900      -0.05232045
Ni       6.29690046       8.02016269       4.28856843        2       1.00000000      -0.06487315      -0.04365040      -0.12767874
Ni       8.86095443       8.03486028       4.26159287        2       1.00000000       0.01197571      -0.03199307      -0.03183391
Ni      11.40351463       8.01334343       4.23539953        2       1.00000000       0.02240265       0.00770573      -0.12724166
Ni      -0.00459962      -0.05351355       6.42942295        1       1.00000000       0.00511990      -0.08876461      -0.15357044
Pt       2.43051259      -0.00606671       6.42621653        1       0.00000000      -0.12018893      -0.01834129      -0.07691918
Pt       5.07688690      -0.01873833       6.37990040        1       0.00000000       0.06334974       0.01389425      -0.31938637
Pt       7.64884115      -0.05873715       6.43036395        1       0.00000000      -0.02732874      -0.10502986       0.01513996
Ni       1.25888555       2.23552264       6.43307010        1       1.00000000       0.00416891       0.11943337      -0.07716822
Pt       3.76913543       2.30735101       6.37155695        1       0.00000000      -0.01083758       0.18622622      -0.30786220
Ni       6.32792603       2.23163213       6.44232945        1       1.00000000      -0.05531012      -0.02091621      -0.07314343
Pt       8.85470559       2.27861809       6.36976623        1       0.00000000      -0.01003133       0.10312954      -0.36232915
Ni       2.51120009       4.42465762       6.43134988        1       1.00000000       0.01335405       0.10524981      -0.06471430
Ni       5.06965967       4.44217178       6.43830866        1       1.00000000      -0.06701343       0.10488317      -0.07925108
Ni       7.54393009       4.39130385       6.45342852        1       1.00000000      -0.19130796       0.05105571      -0.01578186
Ni      10.18218179       4.38833454       6.41517343        1       1.00000000       0.18313991       0.00155976      -0.17259456
Ni       3.84278904       6.52680956       6.43039994        1       1.00000000       0.05300368      -0.12055049      -0.07464022
Ni       6.26432075       6.54819584       6.42946229        1       1.00000000      -0.07637048       0.00357451      -0.14556102
Pt       8.88211423       6.47810369       6.48599058        1       0.00000000      -0.02879037      -0.16897745       0.15275570
Ni      11.42349067       6.52401947       6.43339906        1       1.00000000       0.05690735      -0.02879827      -0.06994424
