64
Lattice="10.25660615606746 -0.020121587629425914 0.0408999465436383 5.110877271982173 8.821277193147704 -0.000477163335412516 0.0 0.0 21.527018940844016" Properties=species:S:1:pos:R:3:tags:I:1:initial_magmoms:R:1:forces:R:3 unique_id=b3f3daa1533244368ce89823c89aafc6 stress="0.005566015300846831 -2.8489150794562544e-06 0.0003288996667786266 -2.8489150794562544e-06 0.005336641599787356 -1.1635681980184481e-05 0.0003288996667786266 -1.1635681980184481e-05 -0.00130735404587946" energy=-373.4246133870563 pbc="T T T"
Ni       0.01627962      -0.00860672       0.11081501        1       1.00000000       0.07513833       0.00543398      -0.11866942
Ni       2.53565133       0.00473385       0.15107751        2       1.00000000      -0.04963354       0.05245149      -0.13917506
Pt       5.12242908      -0.05425297       0.09318934        1       0.00000000      -0.02501517       0.22938166      -0.98578179
Ni       7.72065341      -0.07557198       0.14921043        1       1.00000000      -0.05113047      -0.08287289      -0.23634718
Ni       1.28758744       2.21275360       0.03989013        0       1.00000000      -0.00053005       0.05497279       0.33947125
Pt       3.76441469       2.25689983       0.12862203        1       0.00000000       0.07430123      -0.02616148      -0.47893995
Pt       6.40961087       2.20791454       0.06238754        1       0.00000000       0.05496799      -0.03550362      -0.08689348
Pt       9.06588134       2.19031047       0.08268245        1       0.00000000      -0.00583673       0.10734614      -0.50537303
Ni       2.55138649       4.44616195       0.00000000        0       1.00000000       0.06193254       0.03675528       0.30908880
Ni       5.07942173       4.44199278       0.04825734        0       1.00000000      -0.08927918       0.12454901       0.32209614
Pt       7.72907497       4.45792702       0.04828205        0       0.00000000       0.04529652       0.03803986      -0.00592484
Ni      10.30510571       4.42361376       0.03397504        0       1.00000000       0.09681864       0.00401479       0.28273607
Ni       3.79905863       6.60338618       0.03804667        0       1.00000000      -0.00721550      -0.03403133       0.40701742
Pt       6.35519294       6.65991847       0.11814033        1       0.00000000      -0.07444209       0.06467082      -0.33208344
Ni       8.98391717       6.59311189       0.02818198        0       1.00000000      -0.04789518       0.01987067       0.07627498
Ni      11.56449678       6.56249376       0.03113453        0       1.00000000       0.08250370       0.05948780       0.24518374
Ni       1.30192245       0.72581184       2.12449671        3       1.00000000      -0.01351287       0.00219835       0.09187344
Ni       3.83045507       0.74387348       2.17309421        4       1.00000000       0.05724196      -0.01540272       0.22314318
Ni       6.41651607       0.75844814       2.20203148        4       1.00000000      -0.05859046       0.16779306       0.27051962
Pt       8.99662717       0.70659941       2.21525062        4       0.00000000       0.00053391       0.09141591       0.00557320
Ni       2.55376090       2.94110232       2.17403484        4       1.00000000       0.03928292       0.03072809       0.07863784
Ni       5.11763475       2.95647627       2.19837096        4       1.00000000      -0.05121008       0.05068610       0.14999707
Ni       7.69692496       2.94923986       2.21290242        4       1.00000000       0.05906893       0.02586689       0.19117078
Ni      10.28026216       2.92266294       2.22245919        4       1.00000000       0.01388048      -0.04686239       0.22054440
Ni       3.87987157       5.13431131       2.14603759        3       1.00000000       0.11917291      -0.05878460       0.08256210
Ni       6.38831849       5.13621895       2.18968505        4       1.00000000      -0.04198730      -0.00899616       0.09513497
Ni       8.94702191       5.09758326       2.20504008        4       1.00000000      -0.10825040      -0.23595002       0.22881841
Pt      11.58246888       5.06012126       2.18318473        4       0.00000000       0.12904983      -0.11506501       0.08605893
Ni       5.12642942       7.31194110       2.16960585        4       1.00000000       0.03889548      -0.13949042       0.15818329
Ni       7.64717495       7.33426535       2.17014458        4       1.00000000      -0.11734988      -0.08091131       0.15783883
Pt      10.22127652       7.26179211       2.15559049        4       0.00000000      -0.07429524      -0.17164580      -0.21404239
Ni      12.85023521       7.29019514       2.12769225        3       1.00000000       0.09900752      -0.15179173       0.01329468
Ni       0.01883045       1.50972824       4.25593209        6       1.00000000      -0.04330027       0.06233540      -0.16246039
Pt       2.51879946       1.52428851       4.20370259        5       0.00000000      -0.04603165       0.00262791       0.06239993
Ni       5.15397321       1.47927903       4.26281418        6       1.00000000      -0.05547548      -0.03321142      -0.37184645
Ni       7.70136865       1.47845550       4.29324813        6       1.00000000      -0.03606157      -0.01926594      -0.25858476
Ni       1.26688929       3.70113401       4.31843793        6       1.00000000      -0.06236705       0.04200941       0.02147262
Ni       3.84298327       3.73194536       4.25837497        6       1.00000000      -0.06786775       0.08898747      -0.25889825
Pt       6.41555585       3.67536715       4.27863306        6       0.00000000      -0.04699726       0.00305154      -0.02826476
Ni       9.01437356       3.69453491       4.26819780        6       1.00000000       0.05957767       0.03196211      -0.32167664
Ni       2.57875638       5.80422930       4.31908852        6       1.00000000      -0.00309685      -0.14605645      -0.04372734
Ni       5.11461785       5.83002802       4.25557196        6       1.00000000       0.01566068      -0.15414858      -0.31315344
Ni       7.71408614       5.82201979       4.26659883        6       1.00000000       0.01089127      -0.09383313      -0.33029366
Ni      10.25619197       5.78537742       4.36197507        7       1.00000000       0.00496586      -0.03792772      -0.04044700
Pt       3.91063589       8.00181660       4.25478499        6       0.00000000       0.08937360      -0.11331511       0.12529354
Ni       6.40323404       8.04481165       4.23434641        5       1.00000000      -0.05245161      -0.04897359      -0.34188219
Pt       8.90109851       8.00697752       4.26270356        6       0.00000000      -0.10182509       0.00431375       0.02712878
Pt      11.57457597       8.02386851       4.24774690        5       0.00000000       0.00278877      -0.11289222      -0.04105704
Pt       0.03026813      -0.00138942       6.46835186       10       0.00000000       0.07263149       0.08934209       0.29861745
Pt       2.57741809      -0.01573031       6.50899674       10       0.00000000      -0.03622662      -0.01148746       0.39757370
Pt       5.15101194      -0.04815760       6.40473310        9       0.00000000       0.00214511       0.20903823       1.05375307
Pt       7.70931877      -0.06774973       6.52701894       10       0.00000000      -0.00883801       0.16829281       0.34850608
Ni       1.29336831       2.27097694       6.42344973        9       1.00000000      -0.01883397       0.21553444      -0.22671518
Pt       3.86667061       2.31062654       6.37677211        9       0.00000000       0.05536505       0.00714083       0.46547088
Ni       6.43436027       2.22636244       6.37132024        9       1.00000000       0.00724694      -0.00568976       0.13957453
Pt       9.00244676       2.28818541       6.34492594        8       0.00000000       0.00196347       0.01188184       0.53223982
Ni       2.54463873       4.44611846       6.40872799        9       1.00000000      -0.05497143      -0.01822931      -0.40225174
Ni       5.12242471       4.40519907       6.43215336        9       1.00000000      -0.05089226       0.03980857      -0.27000864
Ni       7.72518064       4.39840724       6.36636339        9       1.00000000       0.08283374       0.03952699      -0.03625659
Ni      10.30144765       4.42878043       6.43131011        9       1.00000000       0.02606405       0.00397141      -0.39431428
Ni       3.81976882       6.52036599       6.42957135        9       1.00000000      -0.03590284      -0.15486982      -0.29488487
Pt       6.41147061       6.49516920       6.34522344        8       0.00000000       0.06353059       0.10322804       0.30640445
Ni       9.01468454       6.50778327       6.44154935        9       1.00000000       0.00868603      -0.14127535      -0.25866977
Ni      11.54707160       6.50707765       6.46012948       10       1.00000000      -0.01350338       0.00592980      -0.31503038
