64
Lattice="10.38712526514073 0.01745047971511295 0.04144635675638224 5.2086751913118725 8.976429496033063 0.017098533343759957 0.0 0.0 21.544173319069575" Properties=species:S:1:pos:R:3:tags:I:1:initial_magmoms:R:1:forces:R:3 unique_id=21a14939af55434fa56a866905c6bd08 energy=-378.46708870723086 stress="0.00624872674857595 0.00029353860383788375 0.0005760087733923319 0.00029353860383788375 0.006283386808571105 0.0001109992671607343 0.0005760087733923319 0.0001109992671607343 -0.0018354712888705889" pbc="T T T"
Ni      -0.01369215       0.02169566       0.09672377        1       1.00000000      -0.03362596       0.05764178       0.11087102
Ni       2.60112593       0.00708232       0.11232306        1       1.00000000       0.00336247       0.01682225       0.01399685
Ni       5.20016478      -0.00339432       0.07956633        1       1.00000000       0.03432722       0.20707484      -0.25942880
Ni       7.81630238      -0.01927213       0.04115886        0       1.00000000       0.04303631      -0.06038246       0.50839883
Ni       1.29288213       2.23231791       0.07833344        1       1.00000000       0.05772759      -0.09638860      -0.05889900
Pt       3.85540936       2.24320201       0.10855028        1       0.00000000       0.01764337      -0.01365750      -0.47574751
Pt       6.53321643       2.19442685       0.12050244        1       0.00000000       0.04691633      -0.09781878      -0.42305730
Ni       9.11578678       2.22455487       0.08012321        1       1.00000000      -0.06004969      -0.15228476       0.01765407
Ni       2.59899895       4.49664256       0.04935666        0       1.00000000      -0.01550693      -0.08177577      -0.23717145
Ni       5.20208567       4.49417455       0.07735095        1       1.00000000       0.17559321      -0.08767581      -0.22061954
Pt       7.87301745       4.50696424       0.03659266        0       0.00000000       0.02142963      -0.06369033       0.06600393
Ni      10.41867265       4.51246246       0.00000000        0       1.00000000       0.06468357       0.00630641       0.23706268
Ni       3.88417372       6.76097033       0.08609119        1       1.00000000      -0.04554912       0.19137063      -0.05931036
Pt       6.49300846       6.78818497       0.12489619        1       0.00000000      -0.05997539       0.06195487      -0.48223769
Ni       9.12641157       6.75319698       0.00977575        0       1.00000000      -0.04157736      -0.00345694       0.25391597
Ni      11.71076925       6.75855384       0.00487884        0       1.00000000       0.15516397       0.07167111       0.25292165
Ni       1.30244066       0.73240182       2.07278641        2       1.00000000      -0.03688583      -0.03551152       0.00211993
Ni       3.90282153       0.75559205       2.13103289        2       1.00000000       0.07967844      -0.01612413       0.17941949
Ni       6.52610036       0.76052273       2.17382492        3       1.00000000       0.10557264       0.04801830       0.24935292
Ni       9.07625565       0.75054614       2.12527863        2       1.00000000      -0.14717141      -0.00426428      -0.02930803
Ni       2.60765273       2.98339570       2.12824220        2       1.00000000      -0.07669800       0.07321794       0.16231064
Ni       5.21069455       2.97652509       2.17637757        3       1.00000000      -0.04729593      -0.11588214       0.30969726
Ni       7.81072839       2.98233898       2.16945008        3       1.00000000       0.05527255      -0.10290943       0.16128544
Pt      10.34497034       2.94653412       2.13554542        2       0.00000000      -0.05753498       0.04650832       0.06606145
Pt       3.93745824       5.22369515       2.08843592        2       0.00000000       0.03178853      -0.05139472       0.08338828
Ni       6.54631289       5.23099487       2.14830420        2       1.00000000       0.15016373      -0.04927155       0.17721238
Ni       9.07520231       5.25169765       2.18469334        3       1.00000000      -0.10730932      -0.00333269       0.27254304
Pt      11.68838247       5.27070473       2.11424714        2       0.00000000      -0.09940250       0.00367662       0.01871064
Ni       5.19540366       7.52450164       2.11022832        2       1.00000000      -0.10487335       0.11684161       0.03687363
Ni       7.81382475       7.48553781       2.13962403        2       1.00000000       0.08026232      -0.04996341       0.10684370
Pt      10.38165554       7.51417202       2.06743991        2       0.00000000      -0.03844211       0.01466931      -0.06697877
Ni      13.02165813       7.53027120       2.12641481        2       1.00000000      -0.02511966       0.11099231      -0.08123005
Ni      -0.01768014       1.51972261       4.25994265        5       1.00000000      -0.04032516       0.06406458      -0.22844667
Pt       2.63611969       1.53634179       4.16546345        4       0.00000000       0.00702730       0.04186882      -0.14485165
Ni       5.23531313       1.51005367       4.24977533        4       1.00000000       0.00841691       0.01529548      -0.42625069
Ni       7.83105907       1.51741538       4.26388866        5       1.00000000       0.07385753       0.04484184      -0.40603900
Pt       1.26283365       3.79161916       4.27372864        5       0.00000000      -0.09601454      -0.00639205       0.05606506
Ni       3.92494264       3.74251038       4.26790399        5       1.00000000       0.02933099      -0.03150673      -0.30015189
Pt       6.57822489       3.71307857       4.20129176        4       0.00000000       0.01291687      -0.03312266      -0.05194530
Ni       9.10530480       3.77579341       4.31798698        5       1.00000000      -0.00094437       0.04335429      -0.25321061
Ni       2.59953604       5.98224155       4.29149441        5       1.00000000      -0.01732929       0.01420341      -0.22917724
Pt       5.20999588       5.95768242       4.23312975        4       0.00000000      -0.00738243       0.00389318      -0.07493144
Ni       7.87803676       5.93993572       4.29086672        5       1.00000000       0.10472232      -0.10214056      -0.30053603
Ni      10.38491777       5.97188370       4.36787905        6       1.00000000      -0.05274519       0.02518851      -0.09204542
Pt       3.89904096       8.28687459       4.20114841        4       0.00000000       0.03058479       0.10056073      -0.10946915
Pt       6.51805752       8.24230891       4.18655017        4       0.00000000      -0.02513728       0.09696477      -0.18399273
Pt       9.12705653       8.16923676       4.28553785        5       0.00000000      -0.07841841      -0.02943920      -0.01189870
Pt      11.73627597       8.23282249       4.29950821        5       0.00000000      -0.04402502       0.00388293      -0.05078742
Pt      -0.02451385       0.00600542       6.51008784        8       0.00000000       0.15195379       0.11332778       0.14605301
Pt       2.64517261      -0.03793084       6.54417332        8       0.00000000       0.00233850      -0.06515652       0.35903344
Pt       5.27002717      -0.09461995       6.53965651        8       0.00000000      -0.08135915       0.08587080       0.28374226
Ni       7.80018450       0.00413602       6.49599499        8       1.00000000      -0.00303924       0.06392348      -0.17349889
Pt       1.28527152       2.27610173       6.51253584        8       0.00000000      -0.09807286      -0.10500037       0.21997144
Pt       3.93397386       2.24704868       6.40628891        7       0.00000000       0.12857200      -0.03733325       0.53624880
Pt       6.55814793       2.20970460       6.41380400        7       0.00000000      -0.04368689      -0.11257222       0.44238902
Pt       9.09726586       2.32676485       6.46679818        8       0.00000000       0.00492712       0.09722769      -0.10053070
Pt       2.54427404       4.54949023       6.49013524        8       0.00000000       0.11975328       0.03261681       0.18425692
Pt       5.24733293       4.48814585       6.51097690        8       0.00000000      -0.06490683      -0.01487310       0.33711734
Ni       7.87619580       4.51347129       6.40091454        7       1.00000000       0.04499496       0.05376462      -0.07146426
Ni      10.36683957       4.56605820       6.48319776        8       1.00000000      -0.15731994       0.09375407      -0.27709758
Pt       3.83582301       6.77523075       6.51899628        8       0.00000000       0.01902502      -0.11095048       0.08430722
Pt       6.60865197       6.67993338       6.43511873        7       0.00000000       0.07825231      -0.05482935       0.44714867
Ni       9.16668526       6.66446826       6.48030921        8       1.00000000      -0.01097047      -0.11087494      -0.24948818
Ni      11.67582827       6.72209664       6.49700356        8       1.00000000      -0.12060099      -0.12139383      -0.25317494
