64
Lattice="10.129776515081634 0.00042001838118943215 -0.011372131278786193 5.065252004128977 8.69784139920614 -0.0673175487955604 0.0 0.0 21.369566387758788" Properties=species:S:1:pos:R:3:tags:I:1:initial_magmoms:R:1:forces:R:3 unique_id=a1ea3c9c2b7d48e887142218e358dd25 energy=-366.3365399472544 stress="0.00403929187612107 -5.61850938126975e-05 -2.1319674427226485e-05 -5.61850938126975e-05 0.003254418414403732 -0.00040069641111961445 -2.1319674427226485e-05 -0.00040069641111961445 -0.0034458698547554824" pbc="T T T"
Ni       0.03846221      -0.05495280       0.13861290        1       1.00000000       0.08816140      -0.02319948      -0.45373344
Ni       2.48332670      -0.04228770       0.14178248        1       1.00000000       0.04089073      -0.03790441      -0.16492139
Pt       5.08074835      -0.07552992       0.14374999        1       0.00000000      -0.10718798      -0.01046816      -0.83739168
Ni       7.61056353      -0.05606109       0.12464757        1       1.00000000      -0.04497092      -0.07257107      -0.51069033
Ni       1.25868541       2.18561246       0.05367091        1       1.00000000      -0.03933706       0.00049977       0.25811965
Pt       3.76080177       2.22560020       0.12406853        1       0.00000000       0.00531273      -0.06735312      -0.74955168
Ni       6.33141719       2.21370567       0.04476988        0       1.00000000      -0.05611609      -0.03458609       0.08914288
Pt       8.86620862       2.22947073       0.03849040        0       0.00000000       0.04810153       0.15147758      -0.89574859
Ni       2.50470276       4.38992711       0.01754324        0       1.00000000       0.05071896      -0.02904981       0.36240621
Ni       5.08546525       4.39600702       0.01722680        0       1.00000000      -0.08812758       0.02356525       0.25480694
Ni       7.56436443       4.39159922       0.02627376        0       1.00000000       0.07576591       0.02801663       0.20639281
Ni      10.15934117       4.38988494       0.01917187        0       1.00000000      -0.04965197      -0.00378153       0.30457028
Ni       3.80251377       6.49628778       0.00584446        0       1.00000000       0.02784651       0.00157101       0.27266100
Ni       6.32477088       6.50617698       0.00472872        0       1.00000000       0.02461845       0.03662868       0.26672632
Ni       8.83605610       6.46557875       0.09209963        1       1.00000000      -0.02781918       0.00454750      -0.09342541
Ni      11.42062651       6.46323866       0.00000000        0       1.00000000      -0.02585690       0.05465896       0.27588095
Ni       1.29888126       0.71482279       2.12278094        3       1.00000000       0.01064366       0.06717020       0.12749685
Ni       3.72581425       0.67245096       2.12995721        3       1.00000000      -0.17482311      -0.12382064       0.16753168
Ni       6.35243197       0.71193705       2.10937556        3       1.00000000       0.07309566       0.03981403       0.08731553
Pt       8.88447311       0.71511101       2.12226864        3       0.00000000       0.08230202      -0.07392935       0.14797266
Ni       2.48698878       2.92097742       2.15468620        4       1.00000000      -0.02609751       0.04151664       0.11959609
Ni       5.07760185       2.94764830       2.07873890        3       1.00000000       0.02905332       0.10948147       0.03404365
Ni       7.57822401       2.94093532       2.09221682        3       1.00000000       0.01236621       0.06584450       0.06752261
Ni      10.17601932       2.94104239       2.12206666        3       1.00000000       0.06252255       0.05279005       0.11314217
Ni       3.78815117       5.05843761       2.06475572        3       1.00000000      -0.03732223      -0.01458209       0.04629630
Ni       6.33492086       5.09114980       2.03694895        2       1.00000000       0.03785199       0.03715745       0.05698751
Ni       8.86582960       5.05940175       2.07236506        3       1.00000000       0.01503555      -0.05784684       0.07849051
Ni      11.39232229       5.05683985       2.07052783        3       1.00000000      -0.01509644      -0.02606567       0.13509974
Ni       5.10700005       7.17163247       2.02431389        2       1.00000000      -0.00037782      -0.04324007       0.08438581
Ni       7.58780787       7.21362401       2.05934603        3       1.00000000      -0.01543132      -0.04898005       0.08131648
Ni      10.12178831       7.16877442       2.10766737        3       1.00000000      -0.00705346      -0.09734815       0.12403866
Ni      12.62470586       7.16158242       2.01456589        2       1.00000000      -0.01601250      -0.09014187       0.06917851
Ni       0.06162509       1.45952347       4.17513419        6       1.00000000       0.12888889      -0.02141740      -0.11361818
Ni       2.47176567       1.43899326       4.14178187        5       1.00000000      -0.02375937      -0.03385324      -0.14223927
Pt       5.04009459       1.40407805       4.08107953        5       0.00000000       0.00882936      -0.01340673      -0.11524373
Ni       7.59033720       1.42816589       4.17120369        6       1.00000000      -0.05677407      -0.08613263      -0.19667084
Ni       1.26323562       3.61121302       4.18456339        6       1.00000000       0.02014684      -0.01455130      -0.09485838
Ni       3.74200130       3.67346462       4.12801789        5       1.00000000      -0.01663912       0.07674487      -0.15949498
Pt       6.35660881       3.66536745       4.17421865        6       0.00000000       0.03891387       0.00000334       0.04412246
Ni       8.91447083       3.66250600       4.10909490        5       1.00000000       0.05560763       0.11236089      -0.16589963
Ni       2.49360256       5.71335811       4.16120352        6       1.00000000      -0.07656481      -0.04502280      -0.17605835
Ni       5.06397978       5.75946932       4.16004478        6       1.00000000       0.05519302      -0.00495341      -0.17227435
Ni       7.60431349       5.80475897       4.10993462        5       1.00000000       0.06216486       0.07728641      -0.15792467
Ni      10.15107206       5.74297113       4.12147438        5       1.00000000       0.00797276       0.00997214      -0.13355570
Pt       3.79684191       7.84880207       4.11249869        5       0.00000000      -0.00724710       0.01129356       0.01590505
Ni       6.35996316       7.91470322       4.07827507        5       1.00000000       0.03269071      -0.01342366      -0.16437959
Ni       8.83187471       7.89001439       4.06904915        5       1.00000000      -0.04141054      -0.01407740      -0.22996029
Ni      11.37825825       7.85935628       4.07185754        5       1.00000000      -0.03360177      -0.10639876      -0.17881889
Pt       0.01205088      -0.08140014       6.36956639        9       0.00000000      -0.15694903       0.17647550       0.30640224
Pt       2.51135221      -0.04116246       6.30219074        8       0.00000000       0.24178053       0.04381412       0.14395154
Pt       5.07285226      -0.06608240       6.24132154        7       0.00000000      -0.19584207      -0.13253991       0.92388067
Pt       7.58058986      -0.08400061       6.35668478        9       0.00000000       0.08998832       0.14997713       0.44462035
Ni       1.25820218       2.20641796       6.26784015        8       1.00000000       0.02499548       0.02284042      -0.11158412
Pt       3.76817176       2.28360834       6.22662122        7       0.00000000      -0.11953283      -0.01661072       0.75023968
Ni       6.32298194       2.19300937       6.29834552        8       1.00000000       0.00438566      -0.01365167       0.05022318
Pt       8.86906227       2.24846275       6.15659369        7       0.00000000      -0.00443168      -0.18278902       0.89841002
Ni       2.49469463       4.37401605       6.25394475        8       1.00000000       0.06254461      -0.04219984      -0.26510597
Ni       5.06652752       4.37947138       6.28540482        8       1.00000000      -0.08770558       0.01152481      -0.14776556
Ni       7.53506217       4.31843557       6.29829918        8       1.00000000      -0.02188561      -0.01042508      -0.01722008
Ni      10.20696260       4.31398691       6.24823409        7       1.00000000       0.04748063      -0.00502723      -0.24104802
Ni       3.79103526       6.38911487       6.26923620        8       1.00000000      -0.01792929      -0.02359908      -0.18409743
Ni       6.29577736       6.41623184       6.24307525        7       1.00000000       0.00362856       0.03435910      -0.26234524
Pt       8.85715496       6.34970526       6.26443020        8       0.00000000       0.04195322       0.10413840      -0.03416522
Ni      11.42530703       6.40789284       6.23167455        7       1.00000000      -0.01989716       0.08941786      -0.23908603
