64
Lattice="10.187581899090008 0.013097353582037122 -0.0029177276837780886 5.1051335904693955 8.761966630023494 -0.08483075729773963 -0.0023823146778829477 -0.07860377496399264 8.713143960101128" Properties=species:S:1:pos:R:3:tags:I:1:initial_magmoms:R:1:forces:R:3 unique_id=5e3b455cb7a6451896b1071cf4992108 stress="-0.006599961315561016 1.1408525319033461e-05 1.154352064087389e-05 1.1408525319033461e-05 -0.006525238349993696 7.057804460330365e-07 1.154352064087389e-05 7.057804460330365e-07 -0.005618580886954931" energy=-391.70893431149693 pbc="T T T"
Ni       0.03606585      -0.05682774       0.19938288        4       1.00000000       0.06055024      -0.09219110       0.15069783
Ni       2.50005413      -0.00165991       0.15885881        4       1.00000000      -0.02735192       0.04205573      -0.02390569
Pt       5.12123589      -0.03107702       0.16139838        4       0.00000000      -0.02742725      -0.02626533      -0.16615634
Ni       7.65388924      -0.04852313       0.17991880        4       1.00000000       0.01725815      -0.13307189       0.09099315
Ni       1.26950892       2.20552392       0.10885115        4       1.00000000      -0.02638458       0.06900908       0.10985255
Pt       3.78402957       2.26362964       0.17541689        4       0.00000000      -0.03292796       0.01937117      -0.10299242
Ni       6.37520646       2.24294168       0.10345368        4       1.00000000      -0.02137504       0.06888777       0.11171640
Pt       8.91890592       2.25464503       0.12680974        4       0.00000000      -0.00672446       0.05053800      -0.17012611
Ni       2.52881874       4.41872091       0.06689786        4       1.00000000       0.00000528       0.01936114       0.05599136
Ni       5.11838842       4.42260660       0.07002429        4       1.00000000      -0.03881729       0.02140101       0.04454750
Ni       7.61098009       4.41698529       0.07451731        4       1.00000000      -0.05530237       0.02594970       0.09306328
Ni      10.22851595       4.41609895       0.07185502        4       1.00000000       0.07044976       0.02181859       0.06323324
Ni       3.83219266       6.53652929       0.04768866        4       1.00000000       0.00823425      -0.09290180       0.01594877
Ni       6.33567411       6.53632098       0.01813498        4       1.00000000      -0.07895551      -0.07553484      -0.06789692
Ni       8.91459477       6.50081927       0.11766617        4       1.00000000       0.01904321      -0.14190479       0.12479825
Ni      11.51169254       6.51603228       0.02417375        4       1.00000000       0.05023247      -0.08086576      -0.01926310
Ni       1.29956771       0.76471028       2.15927366        3       1.00000000       0.00313190       0.10806601       0.02792969
Ni       3.77012677       0.74091195       2.19462431        3       1.00000000      -0.07715156      -0.01372423      -0.04344420
Ni       6.38847318       0.75499288       2.18343342        3       1.00000000       0.01951043       0.01040983      -0.00269623
Pt       8.89847477       0.69921497       2.17788845        3       0.00000000       0.03872687      -0.03420714       0.15006683
Ni       2.51941461       2.94152748       2.22994904        3       1.00000000       0.01260591       0.04401356       0.08000229
Ni       5.10160848       2.95729818       2.15591969        3       1.00000000      -0.02929802       0.08366087       0.00860466
Ni       7.61816919       2.95200545       2.17903701        3       1.00000000      -0.00666189       0.02710161       0.06097311
Ni      10.23946295       2.97658174       2.17403293        3       1.00000000       0.05767480       0.04829507       0.03626471
Ni       3.81694248       5.07943002       2.13957901        3       1.00000000      -0.01627147      -0.06966135       0.00612653
Ni       6.33252829       5.07314619       2.09386427        3       1.00000000      -0.04026579       0.00691027       0.02489031
Ni       8.93267279       5.02709801       2.11915274        3       1.00000000       0.00413696      -0.07065128       0.02822559
Ni      11.50723152       5.05138678       2.14858881        3       1.00000000       0.05417479      -0.04013266       0.06015734
Ni       5.08181456       7.21011673       2.08697744        3       1.00000000      -0.06807709      -0.14168463       0.02492687
Pt       7.58431866       7.29795327       2.08082281        3       0.00000000      -0.06936395      -0.01006491       0.00761986
Pt      10.25478546       7.21482940       2.19387133        3       0.00000000       0.01753108      -0.08889463       0.06806190
Ni      12.75885486       7.20815783       2.08194062        3       1.00000000       0.04442274      -0.15844074       0.00399822
Pt       0.08716385       1.48520816       4.26931165        2       0.00000000       0.04900179      -0.02327696       0.01390701
Ni       2.55526522       1.45401490       4.24907256        2       1.00000000       0.02832348       0.05104960      -0.10430634
Pt       5.07429181       1.40250401       4.18989963        2       0.00000000       0.00746231      -0.00441115      -0.13644370
Ni       7.63095831       1.42440729       4.29092573        2       1.00000000      -0.00560049      -0.06068936      -0.04837858
Ni       1.31284256       3.66588002       4.28866745        2       1.00000000       0.05287937      -0.00329537      -0.05526491
Ni       3.76658277       3.68666310       4.23688576        2       1.00000000       0.00185344       0.05186126      -0.13926177
Pt       6.35485921       3.62149041       4.28529228        2       0.00000000       0.00854720      -0.02144808      -0.02040198
Ni       8.96504243       3.67196731       4.23348693        2       1.00000000       0.06574323       0.04622851      -0.16154435
Ni       2.52887491       5.74270738       4.26666547        2       1.00000000      -0.00851427      -0.01766293      -0.15387002
Ni       5.06441493       5.76996189       4.26680678        2       1.00000000       0.00222572      -0.07293035      -0.13537480
Pt       7.65662613       5.82187382       4.24500781        2       0.00000000       0.03633663       0.01269365       0.00708049
Ni      10.25756373       5.76413309       4.27755139        2       1.00000000       0.03463474      -0.05282613      -0.00224255
Pt       3.81556772       7.87798810       4.20596272        2       0.00000000       0.03328485      -0.00706742       0.03330400
Ni       6.37730907       7.99243481       4.21780756        2       1.00000000      -0.04400059       0.02258966      -0.06693949
Ni       8.90793750       7.99259812       4.21919974        2       1.00000000      -0.04777658      -0.01997207      -0.06139677
Ni      11.48535802       7.93240314       4.22621448        2       1.00000000       0.06668344      -0.08261411      -0.03705652
Pt       0.00646129      -0.11070018       6.52745306        1       0.00000000      -0.06608799       0.03486487       0.18250935
Pt       2.52746869      -0.04555568       6.43913957        1       0.00000000       0.06520370       0.05609261      -0.02507777
Pt       5.10874863      -0.05665094       6.36130967        1       0.00000000      -0.07834726       0.00901870       0.04818314
Pt       7.62788389      -0.08722327       6.49492061        1       0.00000000       0.03905177       0.04633719       0.13975058
Ni       1.27803096       2.21435086       6.42923385        1       1.00000000       0.03456686       0.09511004       0.01135418
Pt       3.79748959       2.29335426       6.35674493        1       0.00000000      -0.02347522       0.11417199       0.01215321
Ni       6.35802825       2.19958176       6.43637815        1       1.00000000      -0.04800350       0.05224463       0.00844267
Pt       8.89589493       2.27349190       6.34294613        1       0.00000000      -0.06587544       0.12128285       0.04532119
Ni       2.52193323       4.39557625       6.37904277        1       1.00000000       0.00655871       0.08920187      -0.07323813
Ni       5.09890234       4.40085445       6.41603982        1       1.00000000      -0.04068822       0.11682373      -0.00761402
Ni       7.57976562       4.35154195       6.43258757        1       1.00000000      -0.15121612       0.05250989       0.04294646
Ni      10.27622119       4.34069969       6.38316567        1       1.00000000       0.15386324       0.00405163      -0.08180447
Ni       3.81931457       6.42327842       6.39100424        1       1.00000000      -0.02311093      -0.04361982      -0.04349520
Ni       6.33827882       6.46073890       6.39196979        1       1.00000000      -0.02644461       0.03046692      -0.11785884
Pt       8.95698113       6.40589702       6.45492768        1       0.00000000       0.05252141      -0.02215212       0.18267893
Ni      11.51226975       6.45531336       6.36054300        1       1.00000000       0.03506661       0.02871392      -0.10827022
