64
Lattice="10.15915982738504 -0.013815649271254804 0.022408657587016795 5.067615210453895 8.774676304395081 0.02365929671974579 0.01829659230297963 0.0117426563734712 8.68950338415243" Properties=species:S:1:pos:R:3:tags:I:1:initial_magmoms:R:1:forces:R:3 unique_id=2c2cbee102e04045a1408bdd130eb2b5 stress="-0.0008926968274206998 2.9352976836618866e-06 -6.774563012014875e-06 2.9352976836618866e-06 -0.0009034660906335409 -5.198403757282166e-06 -6.774563012014875e-06 -5.198403757282166e-06 -0.0007683932836461405" energy=-390.6208781816007 pbc="T T T"
Ni       0.03760608      -0.01244362       0.17263991        4       1.00000000       0.18095885      -0.05002828       0.22898239
Ni       2.52360161      -0.03400478       0.21314583        4       1.00000000       0.02402000      -0.05905442       0.25049913
Ni       5.08440293      -0.03683376       0.09422313        4       1.00000000      -0.01270052      -0.03590500       0.08895059
Ni       7.62491950      -0.03562087       0.07219436        4       1.00000000       0.05808873      -0.05932979       0.00787211
Ni       1.22715202       2.20877729       0.11627303        4       1.00000000      -0.08613874       0.06880394       0.15509317
Pt       3.75116444       2.20449814       0.20812655        4       0.00000000      -0.08817012       0.01833181       0.34586919
Pt       6.40882681       2.19696751       0.10202084        4       0.00000000       0.09357844       0.08489646       0.00278302
Ni       8.93584184       2.22475065       0.08877023        4       1.00000000       0.16167198       0.16389193       0.04405306
Ni       2.50576545       4.42192983       0.11252883        4       1.00000000      -0.08710597       0.09355634       0.13906683
Ni       5.06296457       4.43137511       0.09130733        4       1.00000000      -0.04445732       0.05835054       0.05742186
Ni       7.66069343       4.40704042       0.10003077        4       1.00000000       0.19230314       0.07946556       0.07590499
Ni      10.16064901       4.37339539       0.13025875        4       1.00000000       0.02478433       0.05628977       0.13739090
Ni       3.82638250       6.56335616       0.08248032        4       1.00000000       0.14036539      -0.06761204       0.00735817
Ni       6.34118910       6.59759188       0.09955639        4       1.00000000       0.03559156       0.08627740      -0.04781999
Ni       8.86026421       6.55716968       0.18083742        4       1.00000000      -0.10743135      -0.06814771       0.19968407
Ni      11.41735276       6.54655082       0.08356085        4       1.00000000      -0.09226580      -0.09792486      -0.09725929
Ni       1.29955463       0.74733872       2.13517415        3       1.00000000       0.01853716       0.11106074      -0.00606291
Ni       3.79523724       0.70496310       2.18683256        3       1.00000000      -0.01140140      -0.05455207      -0.02890266
Ni       6.33955685       0.73179163       2.17947753        3       1.00000000       0.06687731      -0.04506039      -0.09037125
Pt       8.93824002       0.78256539       2.14536991        3       0.00000000       0.03106510       0.04494150      -0.02162037
Ni       2.50196445       2.97406148       2.19758569        3       1.00000000      -0.07659048       0.15807451      -0.03509946
Ni       5.06622988       2.93867576       2.22632821        3       1.00000000      -0.03533718       0.02929994       0.02260052
Ni       7.65506702       2.95484150       2.20034416        3       1.00000000       0.09531827       0.10747447       0.03984766
Ni      10.17456954       2.95968662       2.18339675        3       1.00000000       0.00139671       0.07578734       0.01899017
Ni       3.79508451       5.07498291       2.19220006        3       1.00000000      -0.02358824      -0.10907058       0.01428572
Pt       6.35204471       5.14529323       2.15693403        3       0.00000000       0.01866168       0.03987301      -0.02394743
Ni       8.90514638       5.07297448       2.20661665        3       1.00000000       0.05860308      -0.09324720       0.07044760
Ni      11.41312263       5.06739784       2.18185601        3       1.00000000      -0.07747335       0.01424191      -0.08150055
Ni       5.09631862       7.30381305       2.15539269        3       1.00000000      -0.03458024      -0.03613295      -0.06332070
Ni       7.60247543       7.32246650       2.17935117        3       1.00000000      -0.01701041      -0.04892312       0.01177804
Pt      10.09829461       7.28727806       2.22280075        3       0.00000000      -0.00305861      -0.07927972       0.01541008
Pt      12.70128314       7.23143165       2.16894392        3       0.00000000       0.01621374      -0.11245637      -0.09138763
Ni       0.00557193       1.50382379       4.33119289        2       1.00000000       0.04408457      -0.00942884      -0.02227342
Pt       2.50950415       1.48582611       4.23280857        2       0.00000000       0.04493801      -0.02299363       0.10104253
Pt       5.09708616       1.39949485       4.27297635        2       0.00000000      -0.06513501      -0.03111322       0.02059118
Pt       7.68224032       1.48192753       4.37728521        2       0.00000000       0.03117149       0.02226110      -0.01752860
Pt       1.23287551       3.73793221       4.32506085        2       0.00000000      -0.05616167       0.00144801      -0.02611218
Ni       3.80501332       3.73954392       4.30308943        2       1.00000000      -0.06988683       0.05563497      -0.12750839
Pt       6.35226832       3.73329041       4.38145323        2       0.00000000      -0.03199960       0.00320220      -0.01192514
Ni       8.90709132       3.69951447       4.35364586        2       1.00000000      -0.00364379       0.14433020      -0.07991009
Ni       2.52947155       5.83122832       4.36870756        2       1.00000000      -0.07031056      -0.04378357      -0.09155020
Ni       5.04120881       5.82262027       4.36673342        2       1.00000000      -0.12230403      -0.05525642      -0.09682135
Ni       7.67315862       5.83558976       4.34066192        2       1.00000000       0.20093244      -0.03387709      -0.12777258
Ni      10.15811834       5.85752456       4.34534777        2       1.00000000      -0.01366340       0.02097631      -0.08783529
Pt       3.76592570       7.96192709       4.36673801        2       0.00000000       0.02098250      -0.03210814       0.05188932
Pt       6.37076846       7.95420108       4.27196986        2       0.00000000      -0.00415103      -0.05355663       0.07293488
Ni       8.91420109       7.99502160       4.34430517        2       1.00000000      -0.05260590      -0.08667587       0.05890247
Ni      11.40118700       7.97596661       4.39935469        2       1.00000000      -0.02719173      -0.14768737      -0.03521402
Pt      -0.05815346       0.02787761       6.52021842        1       0.00000000      -0.16057071      -0.00773802       0.12923683
Pt       2.57375184      -0.01057999       6.51896994        1       0.00000000       0.02949289       0.00544419       0.16417350
Ni       5.15260146      -0.02316714       6.45115861        1       1.00000000       0.05038654      -0.06201522      -0.12146639
Ni       7.57136883      -0.02518614       6.47850413        1       1.00000000      -0.16833547      -0.08771886      -0.09342307
Ni       1.23735318       2.24989310       6.46388095        1       1.00000000      -0.04808485       0.05386574      -0.05525776
Pt       3.84207597       2.30119637       6.42904152        1       0.00000000       0.02200674       0.15948443      -0.31652861
Ni       6.39147213       2.19668062       6.41488909        1       1.00000000       0.02779464      -0.00630997      -0.16079268
Ni       8.89602866       2.24529736       6.47544775        1       1.00000000       0.00481115       0.16912085      -0.08614209
Ni       2.53181587       4.45399567       6.45574124        1       1.00000000      -0.06969186       0.12826806      -0.04688958
Ni       5.08645847       4.45599604       6.46694649        1       1.00000000      -0.03319138       0.17208994      -0.05700169
Ni       7.62427708       4.36589560       6.47692078        1       1.00000000      -0.00522157      -0.07926489      -0.01888669
Ni      10.17420236       4.35722194       6.48342446        1       1.00000000       0.03878502      -0.08177169       0.02480358
Ni       3.78720188       6.52977936       6.46936710        1       1.00000000      -0.06677458      -0.10346062      -0.06162843
Ni       6.32182168       6.51664273       6.46677123        1       1.00000000      -0.02017159      -0.08995752      -0.16810920
Pt       8.94077794       6.49836809       6.47280548        1       0.00000000       0.06727252      -0.10518895       0.13781623
Ni      11.47046956       6.57177911       6.45637255        1       1.00000000       0.08571130      -0.07011214      -0.19781009
