64
Lattice="10.133060482232658 0.009107384209118668 -0.0014659972393324646 5.0744174672035065 8.74929238188167 -0.008182822118250973 -0.0011969817335644745 -0.00702376095265621 8.678114644044616" Properties=species:S:1:pos:R:3:tags:I:1:initial_magmoms:R:1:forces:R:3 unique_id=994f922260e444809d5c889e7c35cc2a stress="0.0005202777621091809 3.795818034052789e-07 3.273121807064937e-06 3.795818034052789e-07 0.00052155964134077 -6.000583019288919e-06 3.273121807064937e-06 -6.000583019288919e-06 0.0004748592454312736" energy=-390.399765221565 pbc="T T T"
Ni       0.03889254      -0.03316865       0.19335805        4       1.00000000       0.07932075       0.03065495       0.27103636
Ni       2.51934979      -0.02565301       0.20746872        4       1.00000000       0.01775179      -0.01337865       0.22764318
Ni       5.08016659      -0.00956751       0.08657219        4       1.00000000      -0.01328555      -0.02505805       0.04590260
Ni       7.57111284      -0.00208890       0.16115324        4       1.00000000       0.01554049       0.04300635       0.24549727
Ni       1.27189019       2.20072567       0.11720139        4       1.00000000       0.00269268       0.05252444       0.16626570
Pt       3.79575894       2.19775870       0.18136576        4       0.00000000      -0.01376579      -0.02540493       0.32542467
Ni       6.33049742       2.20240505       0.10653154        4       1.00000000       0.00087356       0.07723061       0.17392581
Pt       8.87365704       2.25220433       0.01067729        4       0.00000000       0.03549123      -0.00393656      -0.22091550
Ni       2.51376446       4.40625281       0.10088191        4       1.00000000      -0.02265130       0.03628286       0.11955276
Ni       5.07050150       4.40177612       0.06874918        4       1.00000000      -0.01881161       0.01377427       0.03607575
Ni       7.59744081       4.41287455       0.06863926        4       1.00000000       0.00294672       0.09237570       0.04981519
Ni      10.16471908       4.41955405       0.10030766        4       1.00000000       0.02446018       0.09882184       0.10194385
Ni       3.83257304       6.53425564       0.06189984        4       1.00000000       0.09319629      -0.07308784      -0.00927061
Ni       6.33352876       6.58187957       0.07044275        4       1.00000000      -0.00774460       0.05303019      -0.05106765
Ni       8.84433658       6.54744302       0.14660833        4       1.00000000      -0.11380641      -0.05259653       0.17661629
Ni      11.39635174       6.54206743       0.04206914        4       1.00000000      -0.05930073      -0.03299799      -0.10444649
Ni       1.31280017       0.76194230       2.16217035        3       1.00000000       0.01535264       0.15240442       0.08307254
Ni       3.76051863       0.72592836       2.20411193        3       1.00000000      -0.07575884       0.02112458       0.00638091
Ni       6.31560179       0.77078520       2.14424043        3       1.00000000       0.00909598      -0.00140210      -0.05450711
Pt       8.89783044       0.79258927       2.20807778        3       0.00000000      -0.00236147       0.14001684      -0.10431499
Ni       2.51417198       2.92980802       2.20989004        3       1.00000000       0.07263178      -0.01402688      -0.01143552
Ni       5.07158821       2.92498819       2.19620592        3       1.00000000      -0.05655194      -0.00248042      -0.04634199
Ni       7.59894887       2.93728746       2.18812738        3       1.00000000       0.06086941       0.01612829      -0.02505684
Ni      10.16392727       2.96541271       2.17927730        3       1.00000000      -0.03664432       0.00718188      -0.06008336
Ni       3.79263897       5.04346729       2.17171268        3       1.00000000      -0.01243877      -0.12711057       0.00406374
Pt       6.34083872       5.12613790       2.13917582        3       0.00000000       0.00303366       0.06358522      -0.02251021
Ni       8.88791347       5.06385644       2.17849841        3       1.00000000       0.01997082      -0.09104321       0.04796981
Ni      11.39343501       5.05744264       2.14844119        3       1.00000000      -0.03619518      -0.03171912      -0.02639186
Ni       5.09768561       7.27948958       2.13178414        3       1.00000000      -0.05087001      -0.02035817      -0.00593680
Ni       7.59331613       7.30610648       2.14038574        3       1.00000000      -0.01473144      -0.03841424      -0.00480849
Pt      10.08202282       7.28431147       2.18286624        3       0.00000000      -0.04740123      -0.04341727      -0.05551950
Pt      12.67343418       7.20817891       2.12785694        3       0.00000000       0.06445106      -0.09440548      -0.03675253
Ni       0.00129839       1.49344272       4.32050793        2       1.00000000       0.06800773      -0.03102829      -0.00911498
Ni       2.51861881       1.47098380       4.25854267        2       1.00000000       0.04450855       0.00452094      -0.01961015
Pt       5.07370946       1.40046288       4.23920705        2       0.00000000      -0.04995494      -0.04052706       0.09407777
Ni       7.62217603       1.48725441       4.31360450        2       1.00000000       0.00214997      -0.03880674      -0.04173475
Pt       1.26438332       3.65535988       4.30219843        2       0.00000000       0.02649064      -0.03557647       0.02629277
Ni       3.79307135       3.70304250       4.26559377        2       1.00000000       0.01972052       0.00373345      -0.11600657
Pt       6.36420568       3.67113642       4.34898945        2       0.00000000       0.02332266       0.01064181       0.04176414
Ni       8.88260533       3.66600429       4.30447239        2       1.00000000       0.02863939       0.07109867      -0.18534483
Ni       2.52897961       5.79798387       4.34025439        2       1.00000000      -0.01245662      -0.04754522      -0.08325842
Ni       5.04188413       5.80026836       4.33366724        2       1.00000000      -0.02977274      -0.02239680      -0.09114131
Ni       7.65128779       5.81747827       4.29781428        2       1.00000000       0.14338883      -0.01049547      -0.09555325
Ni      10.13986348       5.82759327       4.29622143        2       1.00000000      -0.01841491      -0.07397394      -0.06815981
Pt       3.77325499       7.96547509       4.31074905        2       0.00000000      -0.04782910       0.01719430       0.18668228
Pt       6.39207707       7.99056987       4.21697723        2       0.00000000       0.04489930       0.02552667       0.12078460
Ni       8.89718756       7.98715223       4.29391099        2       1.00000000      -0.04251198      -0.09414840       0.06131916
Ni      11.37193953       7.96486447       4.31711607        2       1.00000000       0.01441353      -0.12102657       0.00029662
Pt      -0.01798036       0.01147483       6.50480788        1       0.00000000      -0.01913051       0.00647181       0.17700187
Pt       2.56843559       0.00345574       6.48109499        1       0.00000000      -0.04198341       0.03178301       0.13398302
Ni       5.06911810      -0.01880771       6.42224925        1       1.00000000      -0.06258202      -0.02283569      -0.15242434
Pt       7.50388147       0.00905254       6.47991300        1       0.00000000      -0.12344109      -0.00242151       0.09655754
Ni       1.23744340       2.23309813       6.42644902        1       1.00000000      -0.00612272       0.01320504      -0.03757825
Pt       3.81313568       2.29162488       6.37342170        1       0.00000000       0.01070746       0.17724533      -0.32296312
Ni       6.35792180       2.22530931       6.44365978        1       1.00000000       0.00006617       0.09346227       0.00979956
Ni       8.85980365       2.25532951       6.29582946        1       1.00000000      -0.03226587       0.06106959      -0.41112886
Ni       2.52203845       4.42914905       6.42707371        1       1.00000000      -0.02753468       0.09907164      -0.02377428
Ni       5.07869950       4.43085403       6.42996329        1       1.00000000       0.01415796       0.13787929      -0.06366478
Ni       7.60353085       4.35014471       6.43389533        1       1.00000000       0.04225679      -0.04921425      -0.04792033
Ni      10.15185436       4.34260857       6.42608276        1       1.00000000       0.02349316      -0.09472795      -0.01454132
Ni       3.79878428       6.48321260       6.42482076        1       1.00000000      -0.02596994      -0.03480146      -0.07935229
Ni       6.31554306       6.48829992       6.41925084        1       1.00000000       0.03205168      -0.03305224      -0.18023810
Pt       8.91265678       6.47520158       6.42841574        1       0.00000000       0.04707072      -0.11479884       0.07009601
Ni      11.42579039       6.51466256       6.39694560        1       1.00000000       0.01926563      -0.09283134      -0.21697258
