64
Lattice="10.481385436385457 0.030975858484858017 0.002939601890299218 5.267518598544646 9.093686655783046 -0.042772437898275166 0.0 0.0 21.72257057003294" Properties=species:S:1:pos:R:3:tags:I:1:initial_magmoms:R:1:forces:R:3 unique_id=ebb8681183374a07a5c668dee59bd4c0 energy=-384.09639049443865 stress="0.006015509824144396 3.258792567114433e-05 0.000224849290605596 3.258792567114433e-05 0.005676458945555397 -0.00027859387578624853 0.000224849290605596 -0.00027859387578624853 -0.0027775447080877046" pbc="T T T"
Ni      -0.06321247      -0.02336838       0.14661731        1       1.00000000      -0.15377612      -0.05559143      -0.09843018
Ni       2.65131421      -0.03075190       0.14164157        1       1.00000000       0.10324151      -0.04901904      -0.16054595
Ni       5.26942967      -0.02357490       0.12595407        1       1.00000000       0.12909573       0.06434407      -0.19027749
Ni       7.88549933      -0.02993530       0.09153689        1       1.00000000      -0.03121188      -0.05589448       0.54950872
Pt       1.28898692       2.28837392       0.08691069        1       0.00000000       0.19300483       0.06114890      -0.95283427
Pt       3.94371809       2.31912660       0.11721622        1       0.00000000       0.00106101       0.15168481      -0.74906139
Pt       6.59162852       2.20548868       0.10371113        1       0.00000000      -0.09254483      -0.12764700      -0.20157576
Ni       9.16930710       2.25532006       0.12483524        1       1.00000000      -0.02148231      -0.14128338      -0.01362271
Ni       2.64049598       4.56970003       0.09982723        1       1.00000000       0.00122059      -0.07081848      -0.28292240
Ni       5.27042517       4.55650862       0.10453394        1       1.00000000       0.18599354      -0.03935953      -0.08386121
Pt       7.94206382       4.57762785       0.10283196        1       0.00000000      -0.03087772       0.07770328      -0.11968416
Ni      10.50514549       4.61235285       0.00777141        0       1.00000000       0.00436729       0.07068888       0.27869402
Ni       3.92425639       6.85274129       0.12091877        1       1.00000000      -0.03265026       0.12231100      -0.02157646
Pt       6.55323387       6.86934813       0.14789291        1       0.00000000      -0.05131643      -0.00743818      -0.32445251
Ni       9.21694602       6.83809862       0.01798323        0       1.00000000      -0.03635234      -0.04734481       0.41130889
Ni      11.82948268       6.85692644       0.00000000        0       1.00000000       0.11981731       0.06103940       0.42845686
Pt       1.27556217       0.66807709       2.15802604        3       0.00000000      -0.05728344      -0.14035873       0.18971885
Pt       3.99852591       0.77097024       2.21829072        3       0.00000000       0.06138064      -0.07151628       0.21966509
Ni       6.59647419       0.74416899       2.23453575        3       1.00000000       0.09325921      -0.04209063       0.14708355
Ni       9.11549194       0.73358388       2.16892971        3       1.00000000      -0.12559849      -0.01697522       0.02645736
Ni       2.62994381       3.03807263       2.20457210        3       1.00000000      -0.02495600       0.00851236       0.31189542
Ni       5.27606611       3.03278294       2.23082414        3       1.00000000       0.06974439       0.02917018       0.25350382
Pt       7.80977487       3.02758131       2.32321505        4       0.00000000      -0.02753734      -0.01945901       0.23733129
Pt      10.41634715       3.08393361       2.18609483        3       0.00000000      -0.21690658       0.12049194       0.11642915
Pt       3.99786405       5.31707690       2.10444010        2       0.00000000       0.06257979       0.00819119       0.05529514
Ni       6.60579821       5.31235556       2.21657994        3       1.00000000       0.08438923      -0.04321376       0.26926981
Ni       9.15757035       5.34708429       2.24960821        3       1.00000000      -0.06783739       0.04346775       0.18703757
Pt      11.79924791       5.33842585       2.11200365        2       0.00000000       0.03389216      -0.03866448       0.04504042
Ni       5.22161576       7.57430297       2.15629753        3       1.00000000      -0.10080732       0.01658439       0.16703359
Ni       7.90140370       7.51679699       2.19013886        3       1.00000000       0.09870217      -0.11132034       0.20217201
Pt      10.50555466       7.56019731       2.09747963        2       0.00000000      -0.04386189       0.02758838       0.01972718
Ni      13.13951826       7.64326551       2.12557763        2       1.00000000      -0.04401289       0.05694644      -0.04195017
Pt      -0.10201927       1.52650744       4.36389491        6       0.00000000      -0.10040459       0.03363532      -0.20846126
Pt       2.64323112       1.50068838       4.36230891        6       0.00000000      -0.07863629      -0.10715364      -0.24484811
Ni       5.29952404       1.51622557       4.37299364        6       1.00000000       0.04746186       0.04913061      -0.33153416
Ni       7.82919335       1.54076568       4.38771554        6       1.00000000      -0.04689794       0.03219408      -0.19828964
Pt       1.23818597       3.83333937       4.39808436        6       0.00000000      -0.10063432       0.05496100      -0.16325156
Pt       4.01109029       3.73991754       4.31302853        5       0.00000000       0.05209943       0.04745563      -0.21767078
Ni       6.60440331       3.76449315       4.39639663        6       1.00000000       0.01393256      -0.00000355      -0.24314145
Ni       9.14581469       3.84112545       4.39024611        6       1.00000000      -0.03797919       0.04283329      -0.24843938
Pt       2.59221932       6.06861135       4.38198090        6       0.00000000       0.02012680      -0.00680613      -0.10196921
Pt       5.34567526       5.99702996       4.31673280        5       0.00000000       0.03177873      -0.10113376      -0.15755004
Ni       7.93667851       5.99925242       4.34033136        5       1.00000000       0.07942011      -0.08848693      -0.30735158
Ni      10.44290518       6.03979751       4.44222678        6       1.00000000      -0.03221847      -0.00987435      -0.07426703
Pt       3.92570748       8.33880711       4.29178198        5       0.00000000       0.01121438       0.00814761      -0.14637519
Pt       6.59470796       8.27571150       4.31412855        5       0.00000000      -0.03027301       0.10874673      -0.20277419
Pt       9.21512706       8.22841032       4.37569175        6       0.00000000       0.00714834      -0.02421997      -0.09580766
Pt      11.81390346       8.40267634       4.35455549        6       0.00000000      -0.05348942       0.03648414      -0.04094536
Pt      -0.04417720      -0.02539238       6.71957686        9       0.00000000       0.15938728       0.01922398       0.09789505
Pt       2.66026816      -0.06352906       6.72257057        9       0.00000000       0.00751117       0.04720851       0.27685941
Pt       5.30165817      -0.11489514       6.71325678        9       0.00000000      -0.07949907       0.20582319      -0.02994963
Ni       7.84765894      -0.00909060       6.63876296        8       1.00000000       0.03395420       0.02244306      -0.28864864
Pt       1.28754201       2.28319486       6.58111183        8       0.00000000       0.05457693      -0.09299422       0.89336653
Pt       3.95840133       2.24296892       6.57444009        8       0.00000000       0.07701218      -0.08336674       0.71288467
Pt       6.58115847       2.21763971       6.50517335        7       0.00000000      -0.01807684       0.05622158       0.37409682
Pt       9.16076456       2.28834821       6.66426549        9       0.00000000      -0.13646055       0.18359366      -0.01778603
Pt       2.54843975       4.58089771       6.69604982        9       0.00000000       0.08691061      -0.06284492       0.13157439
Pt       5.26404614       4.53866399       6.65034957        9       0.00000000       0.05827094       0.02977758       0.19056121
Pt       7.96697551       4.58339569       6.49738254        7       0.00000000      -0.12121221      -0.06965649       0.23262301
Ni      10.47847656       4.61567098       6.59927664        8       1.00000000      -0.00598931       0.03277863      -0.26166298
Pt       3.85615509       6.84665624       6.69730435        9       0.00000000       0.07843627      -0.07760217      -0.04312465
Pt       6.61832939       6.79406222       6.57691686        8       0.00000000      -0.02054061      -0.05562139       0.41295346
Ni       9.25568405       6.77024809       6.58959492        8       1.00000000      -0.00230118       0.01701082      -0.26594181
Ni      11.75816689       6.80070214       6.61324306        8       1.00000000      -0.03736498      -0.08978333      -0.30785827
