64
Lattice="10.462318930073401 0.012098974988514657 0.05639552782316496 5.241637484736506 9.095023234342921 0.013740516497587124 0.0 0.0 21.669107153293883" Properties=species:S:1:pos:R:3:tags:I:1:initial_magmoms:R:1:forces:R:3 unique_id=c9a4441c414243fa9097e0deb90f71b1 stress="0.004041032625524939 -8.22456366243434e-05 0.00020048946141139584 -8.22456366243434e-05 0.0041072256128745765 -0.00010162926526125308 0.00020048946141139584 -0.00010162926526125308 -0.003695180764313513" energy=-385.2868276258412 pbc="T T T"
Pt      -0.08102421       0.01544402       0.04933311        0       0.00000000      -0.18641252      -0.12626486      -0.65643623
Ni       2.64458328      -0.01900097       0.06683115        1       1.00000000       0.07968540      -0.14118361      -0.06495322
Ni       5.25470637      -0.02677597       0.06216545        1       1.00000000       0.11442795       0.06845955      -0.12155892
Ni       7.83498581      -0.03242843       0.04058455        0       1.00000000      -0.10022467      -0.08148609       0.54126559
Ni       1.30795639       2.27585596       0.04550570        0       1.00000000       0.08348158       0.04253618      -0.21854743
Pt       3.90724508       2.26207838       0.05843591        1       0.00000000       0.01710610       0.16725397      -0.72738523
Pt       6.57401505       2.20746948       0.06760850        1       0.00000000      -0.08301681      -0.12791876      -0.17078694
Ni       9.16463783       2.27683410       0.08417958        1       1.00000000      -0.06387646      -0.09457682      -0.02681521
Pt       2.59628697       4.57666187       0.01613784        0       0.00000000       0.00385280      -0.15194805      -0.97826770
Ni       5.26042992       4.54961337       0.06120934        1       1.00000000       0.15503665      -0.10773593      -0.05303247
Pt       7.92603531       4.56620988       0.07462869        1       0.00000000       0.01988644       0.05464899      -0.10742744
Ni      10.47284978       4.57973135       0.00000000        0       1.00000000       0.01061416       0.09365211       0.30821048
Ni       3.91472294       6.84458623       0.07040690        1       1.00000000      -0.08713984       0.12754088      -0.00821105
Pt       6.56408450       6.83365589       0.12101543        1       0.00000000      -0.02899076       0.06095385      -0.34041888
Ni       9.19930472       6.83253275       0.00687484        0       1.00000000      -0.01805533      -0.03213922       0.43499070
Ni      11.77673500       6.85903433       0.00585941        0       1.00000000       0.10517296       0.02488366       0.39264673
Pt       1.32718405       0.72781146       2.10695239        2       0.00000000       0.10711937       0.01360401       0.17101813
Pt       4.00657551       0.76742300       2.17447328        3       0.00000000       0.14094557      -0.04891514       0.26496896
Ni       6.58920740       0.74557784       2.19674926        3       1.00000000       0.12363619      -0.03762588       0.17228283
Ni       9.10333907       0.74450853       2.18376571        3       1.00000000      -0.22448082       0.02425346       0.10480351
Ni       2.63168358       3.03825724       2.15102119        3       1.00000000      -0.02860466       0.04343397       0.34457977
Ni       5.26803291       3.03045172       2.18532447        3       1.00000000       0.08026146       0.04266304       0.26341561
Pt       7.81437520       3.02621225       2.29604284        4       0.00000000      -0.03373076       0.01572027       0.25101904
Pt      10.43880557       3.05722961       2.11796151        2       0.00000000      -0.06650038       0.09040117       0.01868051
Pt       4.01262415       5.33149547       2.10317770        2       0.00000000       0.14965265       0.06083014       0.09110808
Ni       6.59895593       5.30845666       2.19628899        3       1.00000000       0.13615004      -0.06498289       0.30027957
Ni       9.13923964       5.33445671       2.22705321        3       1.00000000      -0.10384297       0.05412316       0.23850293
Pt      11.74498539       5.34907178       2.18593667        3       0.00000000      -0.07995536       0.06856132       0.13218873
Ni       5.23471490       7.57820524       2.15064798        3       1.00000000      -0.03534735       0.01245058       0.25479903
Ni       7.88000883       7.52572115       2.17654981        3       1.00000000       0.10825655      -0.14027252       0.21617975
Pt      10.47801117       7.57035512       2.10143512        2       0.00000000      -0.03462833       0.05928996       0.01219191
Ni      13.11241004       7.63446913       2.15145246        3       1.00000000      -0.00604594       0.11217669      -0.08215401
Pt      -0.07332516       1.55596210       4.29756113        5       0.00000000      -0.10873276       0.10378086      -0.27037908
Pt       2.65312345       1.51513690       4.32820015        5       0.00000000      -0.15032008      -0.09254277      -0.18249435
Ni       5.30786498       1.52246487       4.34562980        5       1.00000000       0.05702396       0.02528540      -0.37777303
Ni       7.83846328       1.54322405       4.36872722        6       1.00000000      -0.06085293       0.03962255      -0.23794807
Pt       1.23942484       3.82762253       4.34635846        5       0.00000000      -0.18477977      -0.00280202      -0.17726898
Pt       4.02613147       3.74578592       4.28026399        5       0.00000000       0.09090505       0.01020803      -0.31087724
Ni       6.60880107       3.76910979       4.37143012        6       1.00000000       0.04521672       0.00395903      -0.25849171
Ni       9.14351047       3.83801815       4.37637354        6       1.00000000      -0.08937405       0.08708785      -0.30298211
Pt       2.59271591       6.09445075       4.34072594        5       0.00000000      -0.01872533       0.05419627      -0.20626724
Pt       5.34663834       6.01212009       4.29894674        5       0.00000000       0.05453807      -0.14181409      -0.23043648
Ni       7.93208735       6.00934268       4.33916887        5       1.00000000       0.11995378      -0.14790584      -0.36922265
Ni      10.43390417       6.04233999       4.44966216        6       1.00000000      -0.06847301      -0.06243805      -0.04232262
Pt       3.92189157       8.36101337       4.26541924        5       0.00000000       0.00159991       0.01293834      -0.26021490
Pt       6.59533968       8.28494845       4.29766277        5       0.00000000       0.00491421       0.05585942      -0.27436675
Pt       9.20531414       8.23879537       4.38519269        6       0.00000000      -0.00552688      -0.06173141      -0.10062903
Pt      11.79663199       8.40689940       4.37179424        6       0.00000000      -0.05532302       0.07450828      -0.10617285
Pt      -0.01291878      -0.00820424       6.54321259        7       0.00000000       0.11706624       0.00659269       0.59981982
Pt       2.68136313      -0.04983346       6.66613046        9       0.00000000      -0.00104777       0.02246432       0.32504203
Pt       5.31883399      -0.10538087       6.66910715        9       0.00000000      -0.06816710       0.16998882       0.00876893
Ni       7.85967226      -0.00990074       6.61426379        8       1.00000000       0.02111370       0.01813714      -0.30023773
Pt       1.30875324       2.29935381       6.64529744        8       0.00000000       0.06610923      -0.08850043       0.26565005
Pt       3.97428054       2.25021382       6.53827455        7       0.00000000       0.07400368      -0.08283236       0.73492079
Pt       6.59332847       2.22665489       6.48530828        7       0.00000000       0.00469285       0.02059850       0.34284257
Pt       9.17067581       2.29416550       6.64673420        8       0.00000000      -0.15795119       0.15466440       0.00660095
Pt       2.56775829       4.58732517       6.53768320        7       0.00000000       0.11117815      -0.01805999       0.80278665
Pt       5.27896103       4.54591026       6.62135321        8       0.00000000       0.04719456       0.04759619       0.21849314
Pt       7.97367640       4.58932824       6.49002872        7       0.00000000      -0.11516263      -0.04237028       0.20124396
Ni      10.48017414       4.60798488       6.61273544        8       1.00000000      -0.00000369       0.08866366      -0.29169556
Pt       3.87045676       6.85791312       6.64993417        8       0.00000000       0.07223605      -0.07570067       0.03069771
Pt       6.62551770       6.80431806       6.56505181        8       0.00000000      -0.03177674      -0.08780656       0.42089639
Ni       9.25071351       6.78293133       6.60026721        8       1.00000000       0.05201410      -0.03560651      -0.28714025
Ni      11.75915392       6.81267643       6.63523383        8       1.00000000      -0.07797619      -0.13842798      -0.32797948
