64
Lattice="9.83425485149486 0.0020020576627231288 -0.014281722265771134 4.91886125854319 8.519717615178992 -6.3300653291261385e-15 -0.011660977399761532 0.006732468440760456 8.410201907096587" Properties=species:S:1:pos:R:3:tags:I:1:initial_magmoms:R:1:forces:R:3 unique_id=db921a3d2ddd40d7b43d23ed2ecb08ea stress="0.0026713688101805758 -6.727717259189634e-07 2.0655638404262277e-06 -6.727717259189634e-07 0.0026705919603059944 -1.192553838895242e-06 2.0655638404262277e-06 -1.192553838895242e-06 0.0023771149522639964" energy=-376.5246907153331 pbc="T T T"
Ni      -0.06973560      -0.00958671       0.07871926        4       1.00000000      -0.05039049      -0.02014636       0.00026904
Pt       2.48720163      -0.01603359      -0.00930252        4       0.00000000       0.01549232      -0.00894450      -0.24681647
Ni       4.98130474       0.00215315       0.10120918        4       1.00000000       0.02969044      -0.00063355       0.04853488
Ni       7.36766275       0.00161849       0.09319468        4       1.00000000      -0.01289118       0.00209780       0.03962636
Ni       1.20314985       2.19511556       0.07871926        4       1.00000000      -0.00774799       0.05371263       0.00026904
Ni       3.71421305       2.17973047       0.10004564        4       1.00000000      -0.00296697       0.02231823       0.03394328
Ni       6.15133323       2.13682655       0.10957451        4       1.00000000       0.00574543       0.00951660       0.07937626
Ni       8.59213271       2.13909454       0.09200660        4       1.00000000      -0.00655821       0.00378639       0.04596819
Ni       2.45788456       4.27797392       0.10378709        4       1.00000000      -0.00362868       0.03428750       0.02786003
Ni       4.91358118       4.26290726       0.11110669        4       1.00000000      -0.01074601       0.00620421       0.07377241
Ni       7.37369711       4.25402290       0.10957451        4       1.00000000      -0.00536890      -0.00973399       0.07937626
Ni       9.83100629       4.26825467       0.09319468        4       1.00000000      -0.00826234       0.01011519       0.03962636
Ni       3.67268476       6.38206959       0.10378709        4       1.00000000      -0.03150819      -0.01400122       0.02786003
Ni       6.11798113       6.34317893       0.10004564        4       1.00000000      -0.02081164      -0.00858964       0.03394328
Ni       8.63736426       6.33463399       0.10120918        4       1.00000000       0.01539389      -0.02539590       0.04853488
Ni      11.07000425       6.38830649       0.09460037        4       1.00000000       0.00703748      -0.00406309       0.02201049
Pt       1.20046525       0.72686400       2.16749679        3       0.00000000       0.00170416      -0.00098390      -0.09091089
Ni       3.73856417       0.71825943       2.14467784        3       1.00000000      -0.02006187      -0.00914653      -0.05578658
Ni       6.14709172       0.70940769       2.12939490        3       1.00000000      -0.00969404       0.00480978       0.07196664
Ni       8.54498985       0.71084474       2.12013386        3       1.00000000       0.00161471      -0.00022688       0.04523356
Ni       2.47367904       2.88888750       2.12605463        3       1.00000000      -0.01496430       0.02163660       0.01103840
Ni       4.90511525       2.83873220       2.09749976        3       1.00000000      -0.00705227      -0.00174711       0.06710292
Ni       7.38586879       2.83553134       2.09296092        3       1.00000000       0.00248093      -0.00143237       0.07001953
Ni       9.80546189       2.89404637       2.12013386        3       1.00000000       0.00100384      -0.00128494       0.04523356
Ni       3.68037755       4.97489771       2.13078939        3       1.00000000      -0.00796982       0.00460138       0.05014318
Ni       6.14272000       4.98232651       2.09749976        3       1.00000000      -0.00201309       0.00698100       0.06710292
Ni       8.60775735       4.97140559       2.12939490        3       1.00000000      -0.00901241       0.00599040       0.07196664
Ni      11.06142592       4.98249334       2.12023201        3       1.00000000      -0.00698372       0.01292554       0.02618330
Ni       4.88356613       7.06293438       2.12605463        3       1.00000000      -0.02622000       0.00214116       0.01103840
Ni       7.39582775       7.05282576       2.14467784        3       1.00000000      -0.00210981       0.02194735      -0.05578658
Ni       9.84413299       7.09606359       2.12357000        3       1.00000000       0.01157347      -0.00668195       0.00759419
Ni      12.28318498       7.09864212       2.12023201        3       1.00000000      -0.01468571      -0.00041469       0.02618330
Ni      -0.02597295       1.43494842       4.22774597        2       1.00000000       0.00993776      -0.00573757      -0.03382358
Ni       2.47198154       1.45089758       4.19819334        2       1.00000000       0.00907815       0.05591021      -0.11769635
Ni       4.89577540       1.38292580       4.18050928        2       1.00000000       0.00598558      -0.01070525      -0.00450523
Ni       7.38723407       1.38339757       4.17508148        2       1.00000000      -0.00896867      -0.00220022       0.01156816
Ni       1.22373841       3.56182154       4.17932325        2       1.00000000      -0.00110153       0.00894733      -0.03574509
Ni       3.63886228       3.56241100       4.18033247        2       1.00000000       0.00890563       0.02478812      -0.00748616
Pt       6.14218480       3.55357263       4.17701279        2       0.00000000       0.00438905      -0.00253402       0.08042642
Ni       8.64413618       3.56041586       4.17508148        2       1.00000000      -0.00257888       0.00886720       0.01156816
Ni       2.44654574       5.68725084       4.17871709        2       1.00000000      -0.00796238       0.00459708      -0.01592004
Ni       4.88286929       5.71709435       4.18033247        2       1.00000000      -0.01701433      -0.02010656      -0.00748616
Ni       7.39881540       5.71831825       4.18050928        2       1.00000000       0.01226381       0.00016896      -0.00450523
Ni       9.83877107       5.68695989       4.16863663        2       1.00000000       0.01808984      -0.00081375      -0.01238035
Ni       3.67581785       7.80894770       4.17932325        2       1.00000000      -0.00829938      -0.00351971      -0.03574509
Ni       6.12805318       7.78339941       4.19819334        2       1.00000000      -0.04388059      -0.03581701      -0.11769635
Ni       8.61857164       7.80364177       4.15525316        2       1.00000000       0.03388416      -0.01956303      -0.12241122
Ni      11.06177163       7.80525900       4.16863663        2       1.00000000       0.00974964      -0.01525938      -0.01238035
Ni      -0.00944247       0.00006724       6.19542815        1       1.00000000       0.01864876      -0.01727183      -0.03252173
Ni       2.45613705       0.00190155       6.05870928        1       1.00000000       0.01685267      -0.00972989      -0.21194081
Ni       4.91279765      -0.00624968       6.19356654        1       1.00000000      -0.00554001      -0.03662871      -0.01622011
Ni       7.37267380      -0.00459356       6.19514243        1       1.00000000       0.01380121      -0.03033802      -0.01753970
Ni       1.22493585       2.13807321       6.19542815        1       1.00000000       0.02428222      -0.00751438      -0.03252173
Ni       3.68090741       2.13490377       6.20129413        1       1.00000000       0.00773720      -0.00696564      -0.01627151
Ni       6.14144866       2.10223139       6.23671390        1       1.00000000       0.00527144      -0.05123749       0.04899283
Ni       8.60205252       2.13336734       6.20134917        1       1.00000000       0.00108743      -0.00062783       0.00411438
Ni       2.44609783       4.26578753       6.20562744        1       1.00000000      -0.01046496       0.00246312      -0.02361260
Ni       4.88606179       4.27879559       6.23863290        1       1.00000000      -0.02766349       0.01597152       0.04274347
Ni       7.39871512       4.27988077       6.23671390        1       1.00000000       0.04700869       0.02105354       0.04899283
Ni       9.83889162       4.26702099       6.19514243        1       1.00000000       0.03317410       0.00321681      -0.01753970
Ni       3.67734512       6.39837040       6.20562744        1       1.00000000      -0.00736560       0.00783136      -0.02361260
Ni       6.14014938       6.39443581       6.20129413        1       1.00000000       0.00990102      -0.00321779      -0.01627151
Ni       8.61038778       6.39816429       6.19356654        1       1.00000000       0.02895139       0.02311214      -0.01622011
Ni      11.06035908       6.39387513       6.19269110        1       1.00000000       0.01175104      -0.00678447      -0.01882971
