64
Lattice="10.211934967998845 0.009550387109430134 -0.030731149229969647 5.114238361852164 8.814330280295538 -0.09878172608742182 0.0 0.0 21.635192788496468" Properties=species:S:1:pos:R:3:tags:I:1:initial_magmoms:R:1:forces:R:3 unique_id=ae7c525836104b08b1caf0270665027c energy=-371.51870063990896 stress="0.00172676698614483 6.611369263894609e-05 -0.0002531637731750444 6.611369263894609e-05 0.0014936085178006205 -0.000869830666766095 -0.0002531637731750444 -0.000869830666766095 -0.00538427779585089" pbc="T T T"
Ni       0.01970514       0.00950436       0.24663733        2       1.00000000       0.13575024      -0.05158034      -0.62654536
Ni       2.55649589      -0.01221255       0.28204218        3       1.00000000       0.02377405      -0.03689368      -0.36250581
Ni       5.11029924      -0.04082567       0.14292605        1       1.00000000       0.00636808       0.08571236       0.19976583
Ni       7.66099288      -0.03433503       0.09547825        1       1.00000000      -0.04467679       0.02325394      -0.02699013
Ni       1.23442008       2.20339552       0.16176751        2       1.00000000       0.04839332      -0.02279675       0.27978620
Pt       3.77316284       2.19410275       0.24499677        2       0.00000000       0.09902604       0.01438786      -0.86964590
Pt       6.44058789       2.19621024       0.25187712        3       0.00000000      -0.06975260      -0.00979171      -0.95115044
Ni       8.98524352       2.23561449       0.09398268        1       1.00000000      -0.06477129       0.03381841       0.17276100
Ni       2.54579839       4.41404516       0.08629849        1       1.00000000      -0.00934704      -0.05040613       0.05635597
Ni       5.07727054       4.41381583       0.09314257        1       1.00000000      -0.05926736      -0.12673477       0.02325838
Ni       7.72648602       4.39416663       0.08905128        1       1.00000000       0.08324730      -0.01107330       0.13399617
Ni      10.19543604       4.37837105       0.06249683        1       1.00000000      -0.06993991       0.03564387       0.11613918
Ni       3.82226110       6.57747459       0.05289994        1       1.00000000       0.05847042      -0.04618610       0.07353497
Pt       6.38610963       6.62390765       0.00673862        0       0.00000000       0.04757571       0.12924155      -0.22666591
Ni       8.94982710       6.58338184       0.13796223        1       1.00000000      -0.07248946      -0.12714898      -0.21597593
Ni      11.48290395       6.59749222       0.00000000        0       1.00000000      -0.09280751      -0.07832402       0.11155600
Ni       1.29669856       0.72938506       2.20397936        5       1.00000000       0.06905700       0.02478353       0.04973692
Ni       3.82641330       0.71838290       2.26191728        6       1.00000000       0.06164842      -0.03171680       0.21178265
Ni       6.33569797       0.73291046       2.26983838        6       1.00000000      -0.09080132      -0.03422941       0.20396070
Pt       8.97784724       0.78338023       2.16921111        5       0.00000000      -0.09250092      -0.01112541       0.04598740
Ni       2.51444205       2.90344134       2.23183160        5       1.00000000      -0.11177477      -0.02929328       0.07890013
Ni       5.09256260       2.90483070       2.26764288        6       1.00000000       0.01040468       0.03245359       0.25168722
Ni       7.71771169       2.96618292       2.22998463        5       1.00000000       0.13952590       0.12997337       0.19188187
Ni      10.20153668       2.92819173       2.18292825        5       1.00000000       0.00782058      -0.00422232       0.05722643
Ni       3.84160391       5.09969771       2.16234527        5       1.00000000       0.02712032      -0.10319463      -0.08286990
Pt       6.39073523       5.13513608       2.18787038        5       0.00000000      -0.00595777      -0.10059743       0.05650698
Ni       8.92603094       5.09479003       2.19388953        5       1.00000000      -0.00152445      -0.02554426       0.06501504
Pt      11.46493862       5.06804939       2.13323279        4       0.00000000      -0.02658229      -0.00765171      -0.00098671
Ni       5.11836642       7.32504876       2.15150561        5       1.00000000       0.00941872      -0.01958525       0.03027460
Ni       7.65831412       7.35184066       2.16357449        5       1.00000000      -0.03443419      -0.00213873       0.11914325
Pt      10.14271528       7.36544498       2.18680652        5       0.00000000      -0.00519732       0.00469531       0.10516974
Pt      12.78211657       7.31749523       2.09382299        4       0.00000000      -0.00278552       0.00643029      -0.02710608
Ni      -0.01726905       1.44696382       4.41613553        9       1.00000000      -0.01374124      -0.06582024      -0.08901037
Pt       2.54781800       1.40133596       4.30102739        8       0.00000000      -0.06831879      -0.05117313      -0.10501101
Ni       5.10162978       1.37592161       4.35171101        9       1.00000000      -0.04033756      -0.07722659      -0.19467751
Pt       7.66429182       1.42954155       4.35342452        9       0.00000000       0.12115179      -0.06057824      -0.04658878
Pt       1.17953174       3.66434079       4.43159447        9       0.00000000      -0.00881745       0.00473918       0.01276629
Pt       3.81674589       3.72428453       4.31078917        8       0.00000000      -0.05252905       0.13803543      -0.14121814
Pt       6.41461964       3.70184417       4.37023097        9       0.00000000      -0.00416372       0.22073638      -0.10558187
Ni       8.93185606       3.68206243       4.36159719        9       1.00000000      -0.03477530       0.06254865      -0.03716692
Ni       2.49008109       5.85261545       4.39811167        9       1.00000000      -0.16247124       0.03308622      -0.08355457
Ni       5.08725645       5.83951954       4.36620198        9       1.00000000      -0.00227241       0.00566400      -0.16284333
Ni       7.72769289       5.83469733       4.32529925        8       1.00000000       0.17902397       0.02885154      -0.16290057
Ni      10.19580025       5.86992917       4.32361703        8       1.00000000      -0.03777388       0.04308341      -0.08305226
Pt       3.78563811       7.95493458       4.36266370        9       0.00000000      -0.06121914      -0.02554554      -0.06491860
Pt       6.40378571       7.96130841       4.24535911        7       0.00000000       0.07048034      -0.03849118      -0.14983767
Ni       8.97644815       8.02146534       4.31904005        8       1.00000000      -0.01205978       0.03916795      -0.06440243
Ni      11.43469571       8.02041143       4.35253610        9       1.00000000      -0.05916958       0.01363307      -0.02859563
Pt      -0.08717729      -0.02100501       6.63519279       12       0.00000000       0.06268123      -0.00114486       0.31498942
Pt       2.55078031      -0.06901054       6.62162509       12       0.00000000       0.04712512      -0.06196827       0.32376862
Ni       5.13693755      -0.08397310       6.50629419       11       1.00000000      -0.02247731       0.10967191      -0.08675425
Ni       7.59347391      -0.09971811       6.53605809       11       1.00000000       0.00095917       0.00076618       0.02571923
Ni       1.21885362       2.19872229       6.54278057       11       1.00000000       0.02146291      -0.06235378      -0.04014858
Pt       3.79652215       2.23694257       6.48822869       11       0.00000000       0.19804112      -0.01390904       1.00143712
Pt       6.41337971       2.15308757       6.50651741       11       0.00000000      -0.23461859       0.00664689       1.07866554
Ni       8.95534698       2.22392040       6.50086157       11       1.00000000       0.04183811       0.09057462      -0.09338936
Ni       2.51092538       4.43446597       6.51965011       11       1.00000000       0.00924963       0.04824355      -0.10039815
Ni       5.08986605       4.44482692       6.50711323       11       1.00000000      -0.00485255      -0.05051534      -0.02910145
Ni       7.67033970       4.37209888       6.49474991       11       1.00000000       0.09283031      -0.01680518      -0.02780655
Ni      10.20252711       4.34266768       6.49892350       11       1.00000000      -0.02871414       0.06203039      -0.04442242
Ni       3.78481181       6.51086479       6.47459514       11       1.00000000       0.03843654       0.00919425      -0.15004669
Ni       6.34656115       6.50102125       6.35549622       10       1.00000000       0.05985505       0.02375599       0.30863616
Pt       8.98838001       6.49165697       6.46284815       11       0.00000000      -0.06283355       0.05329728      -0.01466010
Ni      11.51602646       6.56690319       6.42248197       10       1.00000000      -0.00498031      -0.05835459      -0.20387963
