64
Lattice="10.323230731248918 -0.009064309125804016 0.02945490630782483 5.153765443653757 8.851162401920437 0.01887322340574071 0.0 0.0 21.543434641471936" Properties=species:S:1:pos:R:3:tags:I:1:initial_magmoms:R:1:forces:R:3 unique_id=7b62ec6843514e6fa17cac7b703040d5 stress="0.005073248906460549 -2.61654585254067e-05 0.0004146749231488849 -2.61654585254067e-05 0.004868760388591083 0.00021096958898747013 0.0004146749231488849 0.00021096958898747013 -0.002675151718487855" energy=-374.7596104068261 pbc="T T T"
Ni       0.00389990       0.02575185       0.11774764        1       1.00000000       0.09870552      -0.00986657      -0.25181816
Ni       2.58233079       0.00833178       0.15877356        2       1.00000000      -0.01959395       0.02048003      -0.18652117
Ni       5.15839828      -0.01242022       0.10811496        1       1.00000000       0.00052910       0.18877147      -0.39039771
Ni       7.74971696      -0.04672593       0.14019141        1       1.00000000      -0.09497685      -0.07860112      -0.29454291
Ni       1.25859661       2.22161772       0.13031628        1       1.00000000      -0.06752643       0.05396179      -0.00140225
Pt       3.81187104       2.22024371       0.04806098        0       0.00000000      -0.02260572      -0.01002287      -0.01464283
Pt       6.47738407       2.16012719       0.05755985        1       0.00000000       0.07813221      -0.06914183      -0.01568343
Ni       9.07664381       2.21250223       0.10420489        1       1.00000000       0.05977438       0.12682880      -0.11085285
Ni       2.55514550       4.44873442       0.00000000        0       1.00000000      -0.07981558      -0.03989051       0.16030814
Ni       5.15670892       4.43341217       0.10939772        1       1.00000000       0.17282236      -0.07709038      -0.37804207
Pt       7.82084603       4.43523123       0.05687480        1       0.00000000       0.04644190       0.00453180      -0.02270102
Ni      10.35182560       4.41746282       0.03814108        0       1.00000000       0.05445011      -0.06801319       0.26868910
Ni       3.82968207       6.66062421       0.03388963        0       1.00000000      -0.00551480       0.12502884       0.22766570
Pt       6.42469519       6.68834962       0.14685475        1       0.00000000      -0.00169662       0.04156749      -0.63011937
Ni       9.05400441       6.65086043       0.03546807        0       1.00000000      -0.08392151      -0.00303613       0.09180747
Ni      11.62668885       6.63171074       0.02738120        0       1.00000000       0.08223178       0.00618664       0.21811090
Ni       1.30649278       0.76498280       2.09602271        3       1.00000000       0.00842071       0.08967395       0.07892426
Ni       3.86837754       0.75597186       2.14323749        3       1.00000000       0.04054187       0.05549875       0.16471880
Ni       6.44897595       0.75613102       2.17837669        4       1.00000000      -0.03942361       0.13664565       0.21544554
Pt       9.04274749       0.78195352       2.13953729        3       0.00000000      -0.02676511       0.13172829       0.09963109
Ni       2.56258341       2.93248425       2.13854816        3       1.00000000      -0.03581033      -0.00637628       0.07831610
Ni       5.17004267       2.91647791       2.18165837        4       1.00000000      -0.01654264      -0.11897292       0.18533976
Ni       7.76471158       2.96020974       2.18894678        4       1.00000000       0.06121031       0.07559642       0.15498798
Ni      10.31991218       2.94097899       2.17758740        4       1.00000000      -0.02531373       0.03782860       0.16150482
Pt       3.87650419       5.14117436       2.10100561        3       0.00000000       0.02721829      -0.07205548      -0.01117886
Ni       6.49397017       5.14388481       2.17548025        4       1.00000000       0.10105664      -0.05552259       0.12579697
Ni       9.01230139       5.13646467       2.20991985        4       1.00000000      -0.06737135      -0.12293806       0.22497874
Pt      11.57808526       5.09735728       2.17667925        4       0.00000000      -0.06017201      -0.07673247       0.06364530
Ni       5.14609819       7.39453852       2.14247401        3       1.00000000      -0.09472366      -0.00041689       0.03848324
Ni       7.74921487       7.36792260       2.15723347        4       1.00000000       0.03578852      -0.08090180       0.07654079
Pt      10.29870403       7.37114141       2.08156564        3       0.00000000      -0.01820517      -0.02586596      -0.07875109
Ni      12.90743111       7.36675238       2.13262914        3       1.00000000      -0.01048298      -0.03777349      -0.00401098
Ni      -0.00398671       1.55504746       4.26427680        6       1.00000000       0.00944655       0.15944238      -0.13854985
Pt       2.60962307       1.57839160       4.21202795        5       0.00000000      -0.03591018       0.02255548      -0.04235468
Ni       5.18250614       1.49722143       4.28582278        6       1.00000000       0.00356732      -0.03627015      -0.22502559
Ni       7.76123022       1.49172999       4.29051987        6       1.00000000       0.07611486      -0.08455166      -0.19448953
Ni       1.26874532       3.74162837       4.29701233        6       1.00000000      -0.08826644      -0.02583274      -0.05091340
Ni       3.85354234       3.69131010       4.29868011        6       1.00000000      -0.02293567       0.01927447      -0.19484544
Pt       6.51871538       3.62863289       4.25426444        6       0.00000000       0.04360374      -0.02570522      -0.08092637
Ni       9.08336659       3.71358943       4.28258386        6       1.00000000       0.13597246      -0.04332929      -0.24326872
Ni       2.54190258       5.84430745       4.34808802        6       1.00000000      -0.05971920      -0.11647987      -0.01421142
Pt       5.14225146       5.84729157       4.26448491        6       0.00000000      -0.00209508      -0.06220722      -0.07662434
Ni       7.81401736       5.83740013       4.28682956        6       1.00000000       0.08693882      -0.09048904      -0.25718340
Ni      10.32382025       5.82412149       4.36579649        7       1.00000000      -0.01724849      -0.04907961      -0.08049120
Pt       3.85373067       8.11953418       4.26199297        6       0.00000000      -0.00984603       0.00672706       0.07372836
Pt       6.46039902       8.14050836       4.19011531        5       0.00000000      -0.08468633       0.13771374      -0.14492148
Pt       9.03879395       8.05634231       4.28448798        6       0.00000000      -0.05453348      -0.02908428      -0.01023229
Pt      11.61861091       8.08247247       4.27411781        6       0.00000000      -0.02063772      -0.05924754      -0.03066775
Pt       0.00747534      -0.00996473       6.50677387        9       0.00000000       0.08126083       0.20528948       0.37321736
Pt       2.62354915       0.00960754       6.53702879        9       0.00000000      -0.01328224       0.04840230       0.40967549
Pt       5.18225865      -0.00207580       6.51102801        9       0.00000000       0.00844825       0.09545563       0.37146528
Pt       7.73369657      -0.04599885       6.54343464        9       0.00000000      -0.08031029       0.11893242       0.34346591
Pt       1.32667515       2.34778388       6.47310480        9       0.00000000      -0.12063304       0.06010537      -0.00683980
Ni       3.89109416       2.22877332       6.36923785        8       1.00000000       0.00331240      -0.09429097       0.13278799
Ni       6.45780165       2.21336397       6.37925239        8       1.00000000      -0.01980296      -0.14488961       0.18745769
Pt       9.00315984       2.30831758       6.44236411        8       0.00000000       0.03029676      -0.00848777       0.00647487
Ni       2.57196222       4.48330057       6.42455984        8       1.00000000      -0.02108771       0.06131493      -0.25289053
Pt       5.10679169       4.34710623       6.50320781        9       0.00000000       0.01050005      -0.03817294       0.21367667
Ni       7.78887467       4.43494488       6.37704069        8       1.00000000       0.02083628       0.08330639       0.03063943
Ni      10.33550954       4.49248003       6.43975874        8       1.00000000      -0.03478082      -0.01282354      -0.33845114
Ni       3.82995325       6.59074147       6.46060838        9       1.00000000      -0.02792135      -0.06389580      -0.15114087
Pt       6.51718047       6.55978764       6.42592077        8       0.00000000       0.11399268      -0.15587909       0.65901409
Ni       9.09415198       6.56222219       6.45867016        9       1.00000000       0.01997512      -0.03454713      -0.21442995
Ni      11.61817220       6.55465266       6.46901504        9       1.00000000      -0.02743071       0.01563385      -0.29737537
