64
Lattice="10.423431404498949 0.027285244981293724 0.03405091981957415 5.235345417551753 9.051013403630623 -0.012378869808285693 0.02780245961012639 -0.027722667919859025 8.9337250797454" Properties=species:S:1:pos:R:3:tags:I:1:initial_magmoms:R:1:forces:R:3 unique_id=ef4323f0280547669e08a61a1754f073 stress="-0.0008066622292263737 -5.813742794305617e-06 -3.953394471832722e-06 -5.813742794305617e-06 -0.0008039955982332286 1.4083729476272828e-05 -3.953394471832722e-06 1.4083729476272828e-05 -0.000672170793497337" energy=-404.55747498977166 pbc="T T T"
Ni      -0.03475208      -0.00208421       0.16701911        4       1.00000000      -0.25627065      -0.05790114       0.18044235
Ni       2.62079851      -0.00616545       0.07460709        4       1.00000000       0.13936763      -0.04172439       0.05374975
Ni       5.23202949      -0.02129761       0.16264782        4       1.00000000       0.09744220       0.00473494       0.26378602
Ni       7.84492901      -0.02116201       0.13569135        4       1.00000000       0.06888356      -0.13952014       0.19169990
Ni       1.30566566       2.26509837       0.15184248        4       1.00000000       0.01641980       0.02619502       0.18087161
Pt       3.86474950       2.30301861       0.15459574        4       0.00000000      -0.03299752       0.05701760       0.26418986
Pt       6.54264035       2.20366889       0.15630608        4       0.00000000       0.10875380      -0.11536788       0.07873859
Ni       9.14582419       2.24742493       0.16931109        4       1.00000000      -0.07590509      -0.18006289       0.17592389
Ni       2.61341286       4.53439657       0.14564880        4       1.00000000       0.02891252       0.00790896       0.15660300
Ni       5.23164656       4.53278588       0.14953639        4       1.00000000       0.22951149      -0.05982179       0.18181227
Pt       7.90223725       4.55816890       0.08710114        4       0.00000000       0.12822885      -0.05853438      -0.12285664
Ni      10.46007376       4.55965127       0.07141696        4       1.00000000       0.08797020       0.06816773      -0.07138183
Ni       3.90516725       6.81733824       0.16580173        4       1.00000000      -0.04136605       0.15695753       0.20128183
Pt       6.52453440       6.84280407       0.19658862        4       0.00000000      -0.02475314       0.03884942       0.18142066
Ni       9.16739366       6.81072462       0.07861605        4       1.00000000       0.04500822       0.01200266       0.04241002
Ni      11.76031884       6.81874713       0.07766090        4       1.00000000       0.12431981       0.06189112      -0.03310724
Pt       1.28925554       0.69144452       2.14744999        3       0.00000000       0.02559043      -0.05213183      -0.05654849
Pt       3.96884484       0.76184614       2.25798928        3       0.00000000       0.07293432       0.10088375      -0.05234936
Ni       6.56165289       0.74590846       2.27714147        3       1.00000000       0.12307475      -0.02091309      -0.00112735
Ni       9.08327127       0.73591961       2.22430993        3       1.00000000      -0.16619738      -0.01639927      -0.11494402
Ni       2.61282315       3.02636366       2.23149042        3       1.00000000      -0.06142222       0.00526050       0.04475059
Ni       5.24365018       3.02144423       2.26613307        3       1.00000000       0.09529710      -0.05180037      -0.05378507
Pt       7.79322482       3.02665716       2.36952409        3       0.00000000      -0.08237968       0.02034590      -0.09818393
Pt      10.40449519       3.04810363       2.18677876        3       0.00000000      -0.08772529       0.06697261      -0.04810403
Pt       3.97980675       5.29198250       2.14947075        3       0.00000000       0.06217856       0.02352273      -0.00718254
Ni       6.57221465       5.28608905       2.25929561        3       1.00000000       0.19873203       0.00277228      -0.01803404
Ni       9.11163014       5.31101652       2.28825814        3       1.00000000      -0.06856245       0.03916529       0.11852871
Pt      11.73530480       5.31123902       2.18167830        3       0.00000000      -0.01963873       0.00743458      -0.02065128
Ni       5.20786239       7.54723498       2.21089735        3       1.00000000      -0.10285343       0.02790487      -0.04211274
Ni       7.85405003       7.50079446       2.24617271        3       1.00000000       0.07327385      -0.15491800       0.04120607
Pt      10.44688596       7.52834310       2.17035765        3       0.00000000       0.01257474      -0.08399683      -0.01670156
Ni      13.07327888       7.60615246       2.20690444        3       1.00000000      -0.04105672       0.08912943      -0.11435480
Pt      -0.07620136       1.53655523       4.38062156        2       0.00000000      -0.19693689       0.07459194      -0.02673262
Pt       2.62983198       1.48916014       4.41007702        2       0.00000000      -0.06597361       0.05738378       0.04750650
Ni       5.28151355       1.51371436       4.41141537        2       1.00000000       0.04644783       0.05229600      -0.18819677
Ni       7.80478123       1.54254079       4.42603117        2       1.00000000      -0.06044992       0.02898133      -0.09120590
Pt       1.23812037       3.80198274       4.43207738        2       0.00000000      -0.06525469       0.04782384       0.03657973
Pt       4.00188183       3.72551748       4.35453362        2       0.00000000      -0.00452274      -0.06207797       0.01580894
Ni       6.59721996       3.76139192       4.44015846        2       1.00000000       0.03545967       0.03589301       0.05174091
Ni       9.08868623       3.83741245       4.47606917        2       1.00000000      -0.05319185       0.11488187      -0.05278209
Pt       2.58419148       6.04240225       4.41307145        2       0.00000000      -0.00560023       0.02899772      -0.01135514
Pt       5.32878393       5.98302213       4.35543538        2       0.00000000       0.14071449      -0.03594948       0.06241789
Ni       7.90730878       5.95718058       4.42600947        2       1.00000000       0.06285839      -0.14314577      -0.17547987
Ni      10.39313133       6.01445837       4.49727344        2       1.00000000      -0.06340787      -0.07002841      -0.04740925
Pt       3.91686890       8.31367674       4.34033686        2       0.00000000       0.00000591      -0.02788332      -0.08281684
Pt       6.57306939       8.25418552       4.37405625        2       0.00000000      -0.04578151      -0.08694270       0.01565281
Pt       9.16072275       8.19757079       4.46278572        2       0.00000000      -0.05953286      -0.08568616       0.02502882
Pt      11.75292531       8.36593196       4.42253776        2       0.00000000      -0.02659325       0.05611840      -0.03638182
Pt       0.00919960      -0.01526653       6.71336995        1       0.00000000      -0.02551343       0.03930489       0.08962766
Ni       2.63639279      -0.03602338       6.66174444        1       1.00000000       0.01017246      -0.01190962      -0.14918363
Pt       5.22807309      -0.10531311       6.72123739        1       0.00000000      -0.04847974      -0.18376228       0.14054432
Ni       7.81707323       0.00181988       6.66605173        1       1.00000000      -0.00693790       0.05685747      -0.12343307
Pt       1.30584153       2.25135992       6.70982763        1       0.00000000      -0.00503908       0.03264855       0.10531092
Pt       3.94118727       2.20788183       6.60172778        1       0.00000000      -0.05445590      -0.02402761      -0.30892603
Pt       6.56380811       2.23161267       6.52850987        1       0.00000000      -0.01455927      -0.07576528      -0.19948713
Pt       9.11813573       2.34375934       6.68053317        1       0.00000000       0.00198900       0.14294074       0.09912334
Pt       2.55222283       4.55294460       6.70677020        1       0.00000000      -0.10385925       0.08146327       0.09669560
Pt       5.29178851       4.52395450       6.66573375        1       0.00000000      -0.01409388       0.08318932       0.01300127
Ni       7.89563741       4.54446270       6.53906054        1       1.00000000       0.06741509       0.07682185      -0.26538823
Ni      10.39660765       4.59130529       6.64398870        1       1.00000000      -0.18455313       0.19520146      -0.18771055
Pt       3.87530756       6.81777615       6.70133323        1       0.00000000      -0.07516988       0.06311957       0.13574566
Pt       6.68073411       6.76643372       6.60451305        1       0.00000000       0.14715912       0.04625156      -0.13757159
Ni       9.18799215       6.73656561       6.63257966        1       1.00000000       0.13148404      -0.20886513      -0.14417244
Ni      11.71152653       6.78424285       6.66230112        1       1.00000000      -0.14114463      -0.08274774      -0.19254162
