64
Lattice="10.553924891290379 2.690757072330645e-05 0.02550839373658863 5.276985748284988 9.117885385586169 -0.022937782286021894 0.020827516270882918 -0.03365072065864798 9.090962349868537" Properties=species:S:1:pos:R:3:tags:I:1:initial_magmoms:R:1:forces:R:3 unique_id=dccdb6582be146a4b9845217dd592329 stress="-0.005215811711094469 -1.0130249395965057e-05 1.5150076274848548e-05 -1.0130249395965057e-05 -0.005184769913177498 7.982534296616227e-06 1.5150076274848548e-05 7.982534296616227e-06 -0.004194457081732314" energy=-413.67474247321013 pbc="T T T"
Pt       0.01581562       0.03012090      -0.01463476        4       0.00000000       0.00330162      -0.00945698      -0.20551847
Ni       2.64756369       0.00793112       0.04362689        4       1.00000000       0.00344491      -0.03179465       0.08867777
Pt       5.24859973       0.04077411       0.00809670        4       0.00000000      -0.02599508       0.08176208      -0.14728434
Pt       7.89346097       0.06304206       0.10491095        4       0.00000000       0.00357678       0.09482412      -0.03557661
Pt       1.34182622       2.25562515      -0.02243279        4       0.00000000       0.07173780      -0.02523609      -0.19270567
Ni       3.96266041       2.26671533       0.13907119        4       1.00000000       0.00051004       0.02234922       0.33048813
Ni       6.61885169       2.28921803       0.13598929        4       1.00000000       0.08788125       0.00635862       0.25717881
Ni       9.21615773       2.30450242       0.06880161        4       1.00000000      -0.03424920       0.05766898       0.07884886
Pt       2.61942188       4.56154124       0.11039758        4       0.00000000      -0.03078569       0.00932703       0.01175536
Pt       5.34221674       4.48115265       0.10783364        4       0.00000000       0.06740592      -0.11057995      -0.02288032
Ni       7.92676941       4.52750800       0.12956271        4       1.00000000       0.03939920      -0.05199268       0.11447697
Pt      10.50101704       4.54840848       0.05612600        4       0.00000000      -0.06340092      -0.06848391      -0.12508546
Pt       3.93676908       6.83820144       0.07516348        4       0.00000000       0.00570823      -0.00846962      -0.10872865
Pt       6.64347353       6.81355815       0.10634266        4       0.00000000       0.04494437      -0.06896572       0.01725851
Pt       9.25109002       6.82918648       0.01217211        4       0.00000000       0.04717389       0.02564922      -0.11074386
Ni      11.85743314       6.83617912       0.12169691        4       1.00000000      -0.05256618       0.01141513       0.13904355
Pt       1.32442771       0.75448177       2.31076260        3       0.00000000      -0.01692487       0.01172408      -0.01208414
Pt       3.95666931       0.72856193       2.27162228        3       0.00000000       0.01475445      -0.11604945       0.08018511
Pt       6.60761653       0.76162262       2.35629725        3       0.00000000      -0.01601757      -0.02214667       0.10064284
Pt       9.23972439       0.81359247       2.35206533        3       0.00000000       0.03014414       0.09999486       0.00986074
Pt       2.63283974       3.05762718       2.31779311        3       0.00000000      -0.03759449      -0.01507855       0.10533541
Pt       5.31791703       3.05631589       2.33773447        3       0.00000000      -0.00522936      -0.00477999       0.20042170
Pt       7.92585958       3.13212821       2.31741800        3       0.00000000      -0.00374646       0.04684831       0.08700900
Pt      10.52981814       3.11455164       2.34301885        3       0.00000000       0.00844135       0.05554979      -0.04794109
Pt       3.96642676       5.28880356       2.33304963        3       0.00000000       0.00097459       0.03017944       0.04454020
Ni       6.64913559       5.29461400       2.30028826        3       1.00000000       0.07245100      -0.00549175       0.06633859
Ni       9.22723630       5.30798109       2.33083699        3       1.00000000       0.01027042      -0.00255472       0.15789624
Ni      11.84128162       5.30941851       2.29981492        3       1.00000000      -0.06929818      -0.03792579       0.04436113
Pt       5.29207652       7.56695446       2.29752225        3       0.00000000      -0.01455158       0.03060102      -0.00780001
Pt       7.94951608       7.49264814       2.34195850        3       0.00000000       0.00161747      -0.09454103       0.12339652
Pt      10.56302970       7.48595307       2.34113641        3       0.00000000      -0.00064738      -0.07344335       0.08607241
Pt      13.14818442       7.56286090       2.30576455        3       0.00000000       0.01421429       0.00148684      -0.00506126
Ni      -0.03584510       1.53910392       4.58093760        2       1.00000000      -0.14968351       0.10616513       0.02068770
Pt       2.62886945       1.53070972       4.57986919        2       0.00000000       0.03628637       0.06498981       0.00566730
Pt       5.34731125       1.51874850       4.56502587        2       0.00000000       0.03678816       0.04387285       0.12004358
Ni       7.95781969       1.55856460       4.55073802        2       1.00000000       0.07806846       0.22790371      -0.00147158
Pt       1.20315680       3.78929247       4.55254646        2       0.00000000      -0.15493887       0.00201385      -0.01633130
Ni       3.97254107       3.76787837       4.53252224        2       1.00000000      -0.04042079      -0.02366821       0.03565212
Ni       6.66727202       3.78207087       4.51563556        2       1.00000000       0.22316567      -0.02115594      -0.00566224
Ni       9.21962854       3.79092474       4.54239867        2       1.00000000      -0.11192242       0.01219695      -0.06206721
Pt       2.56440176       6.06401025       4.48193549        2       0.00000000      -0.11960804       0.00265741      -0.01578454
Pt       5.36939273       5.98412846       4.47137978        2       0.00000000       0.12775179      -0.05209950      -0.06038305
Ni       7.97213093       6.00193502       4.50685961        2       1.00000000       0.14122025      -0.20315140      -0.10419195
Ni      10.51771876       6.03353284       4.52720299        2       1.00000000      -0.19075291      -0.13927030      -0.06218189
Pt       3.95564951       8.41930071       4.50386857        2       0.00000000      -0.00973757       0.00955728      -0.11486604
Pt       6.61762618       8.36937609       4.55424165        2       0.00000000       0.01412300       0.04424213      -0.03260129
Pt       9.28947802       8.26318418       4.61839255        2       0.00000000      -0.00951855      -0.00165351      -0.00777634
Ni      11.87214017       8.34054677       4.54394342        2       1.00000000      -0.00406429       0.00558869      -0.01354475
Ni       0.03787806       0.03955632       6.65713471        1       1.00000000       0.02568428       0.18612125      -0.25442222
Ni       2.64881160      -0.01800179       6.76242411        1       1.00000000      -0.04391744       0.02212094      -0.06160445
Ni       5.27346188      -0.03621890       6.68269565        1       1.00000000       0.03003762       0.02286597      -0.18518492
Pt       7.92996370       0.02760163       6.67857705        1       0.00000000      -0.01766106       0.03019327      -0.03079145
Ni       1.27284924       2.22259534       6.65537214        1       1.00000000      -0.23163917      -0.07295159      -0.23371273
Pt       3.93113212       2.16945642       6.80007521        1       0.00000000      -0.04460782      -0.08120073       0.26698572
Pt       6.66187217       2.25537244       6.77007310        1       0.00000000       0.11247845       0.09422521       0.17713439
Ni       9.28843131       2.25511223       6.72899833        1       1.00000000       0.12869378       0.01223518      -0.21296259
Pt       2.59142198       4.49208637       6.67294961        1       0.00000000      -0.04460504      -0.05024429       0.02701499
Pt       5.30873822       4.50603616       6.65647411        1       0.00000000       0.00405334      -0.02838366      -0.02706034
Pt       8.04251568       4.53244852       6.69678945        1       0.00000000       0.09808486       0.01981808       0.02584410
Ni      10.54454338       4.51785356       6.68122447        1       1.00000000      -0.04323292      -0.02320893      -0.15769002
Pt       3.98507488       6.85120994       6.66187724        1       0.00000000       0.03991690       0.02056166      -0.05928647
Pt       6.69672362       6.86395942       6.68131972        1       0.00000000       0.09922543      -0.00813090       0.03295918
Ni       9.25548653       6.81376270       6.66529741        1       1.00000000      -0.02028212      -0.06947245      -0.18078852
Pt      11.76657625       6.82590128       6.73445240        1       0.00000000      -0.11593060       0.00851418       0.06599884
