64
Lattice="10.195638540127177 0.014795858489482143 -0.04279123477402515 5.110632859386281 8.76005595804597 -0.09235289572131294 -0.03493889688666694 -0.06689916357963353 8.699688983744744" Properties=species:S:1:pos:R:3:tags:I:1:initial_magmoms:R:1:forces:R:3 unique_id=889290fa44af4cfeb56e067a22f4bc47 stress="-0.007208535195042415 -4.312780179463755e-05 1.4990528726604576e-05 -4.312780179463755e-05 -0.0071553565363768334 1.6994438591361848e-05 1.4990528726604576e-05 1.6994438591361848e-05 -0.006149249875995799" energy=-391.760348574166 pbc="T T T"
Ni       0.03712231      -0.06180099       0.20212051        4       1.00000000       0.04696192      -0.08460520       0.14600542
Ni       2.48081824      -0.03903740       0.21146291        4       1.00000000      -0.08088963      -0.06228649       0.17625239
Pt       5.08301142      -0.05176803       0.13629073        4       0.00000000      -0.04875814       0.04256073      -0.21805591
Ni       7.66852424      -0.05462300       0.15684150        4       1.00000000       0.00355976      -0.04931523       0.12162681
Ni       1.27116717       2.19273013       0.10511986        4       1.00000000      -0.02037950       0.00942444       0.15796543
Pt       3.73334513       2.24914151       0.16277358        4       0.00000000      -0.02627144       0.00932122      -0.08055678
Pt       6.38517340       2.27272239       0.05889383        4       0.00000000      -0.03993209       0.04665413      -0.11140170
Pt       8.99375671       2.24600478       0.07491289        4       0.00000000       0.02222750       0.05213244      -0.16659442
Ni       2.54446868       4.42036095       0.02025148        4       1.00000000       0.02713080       0.04798300      -0.06322501
Ni       5.09507492       4.46456331       0.05651244        4       1.00000000      -0.04409138       0.09498264       0.05187533
Ni       7.64396700       4.45802645       0.05472948        4       1.00000000      -0.02312340       0.06514334       0.11321331
Ni      10.21766406       4.42544438       0.00094536        4       1.00000000       0.00308699       0.07805936       0.00807116
Ni       3.84109375       6.54927861       0.04426764        4       1.00000000       0.01306103      -0.00809836       0.05453466
Ni       6.36273899       6.55690720       0.04017768        4       1.00000000      -0.06238881      -0.03234810      -0.03115547
Ni       8.87542001       6.51577659       0.09576856        4       1.00000000      -0.12366574      -0.04921820       0.13348982
Ni      11.51652164       6.53085810      -0.02655704        4       1.00000000       0.04211588      -0.03968064      -0.03869026
Ni       1.29270882       0.71699650       2.20193781        3       1.00000000      -0.02071338      -0.02297125       0.14509019
Ni       3.74129971       0.72896757       2.17553812        3       1.00000000      -0.08541054      -0.07659520       0.01380208
Ni       6.39572500       0.74041019       2.17574914        3       1.00000000       0.05789179       0.00494931      -0.01350638
Pt       8.94265216       0.72569331       2.17553823        3       0.00000000       0.03198416      -0.03277873       0.11441262
Ni       2.52923414       2.87339819       2.24299280        3       1.00000000       0.02654290      -0.09579968       0.14572090
Ni       5.08097522       2.97997015       2.15773134        3       1.00000000      -0.01218110       0.13335085      -0.04316555
Ni       7.65551557       2.96894195       2.17505256        3       1.00000000       0.03918946       0.01847750      -0.01648497
Ni      10.22095783       2.91384511       2.19126333        3       1.00000000       0.04940274      -0.03083929       0.08665079
Ni       3.86623673       5.09607368       2.13329683        3       1.00000000       0.03378704       0.01882845       0.03486115
Ni       6.36903266       5.12511220       2.09344241        3       1.00000000       0.00142715       0.00638357      -0.00493376
Ni       8.87141711       5.06271514       2.12236209        3       1.00000000       0.02674522      -0.03804167       0.07787109
Pt      11.52169846       5.02846994       2.11945460        3       0.00000000       0.04464899      -0.06794252       0.01150425
Ni       5.13622190       7.22547284       2.08343209        3       1.00000000      -0.03428481      -0.07847030       0.04344548
Ni       7.56990806       7.25586552       2.06666657        3       1.00000000      -0.07433446      -0.10024221       0.05220667
Pt      10.20159564       7.23799874       2.11947841        3       0.00000000       0.01695801      -0.11648018       0.10514351
Ni      12.77526402       7.25268310       2.04221518        3       1.00000000       0.06458774      -0.10578056       0.01654632
Ni       0.04515817       1.46268809       4.28320671        2       1.00000000       0.05860605      -0.03675489      -0.01179412
Ni       2.46448698       1.47312920       4.24483553        2       1.00000000      -0.01741426      -0.00418988       0.01393774
Pt       5.08446711       1.46080720       4.17284212        2       0.00000000      -0.05200036       0.02668732      -0.16980463
Ni       7.64405158       1.44811398       4.24251555        2       1.00000000      -0.01190856      -0.02663092      -0.08894119
Ni       1.26629315       3.60716489       4.31532190        2       1.00000000       0.03799214      -0.03235879      -0.00390405
Ni       3.76656097       3.70073379       4.22260923        2       1.00000000       0.01339166       0.09322778      -0.13908317
Pt       6.39116251       3.70169198       4.24242381        2       0.00000000       0.02343068      -0.00678545      -0.07686447
Ni       8.95708527       3.67695535       4.18909277        2       1.00000000       0.04180197       0.07855419      -0.13550868
Ni       2.53531048       5.75585839       4.29583296        2       1.00000000      -0.00728351      -0.02848470      -0.06798055
Ni       5.08776615       5.79901654       4.24707194        2       1.00000000       0.02289661      -0.02589183      -0.12284620
Ni       7.61827404       5.80764877       4.20000753        2       1.00000000      -0.00533097       0.01861048      -0.11639731
Ni      10.21814932       5.75128177       4.25245945        2       1.00000000       0.00805382      -0.00674336      -0.01862340
Pt       3.82557247       7.90846612       4.19720050        2       0.00000000      -0.02453634      -0.00037346       0.04769194
Ni       6.33925991       7.97114982       4.16440664        2       1.00000000      -0.08989903      -0.02340522      -0.07148072
Pt       8.81791681       7.96136195       4.15215984        2       0.00000000      -0.10795929      -0.01593449       0.00756782
Ni      11.49245936       7.94651365       4.17400018        2       1.00000000       0.02483160      -0.07065349      -0.08801985
Pt      -0.00880080      -0.08907652       6.49371307        1       0.00000000      -0.05404261       0.01835787       0.15337325
Pt       2.49847993      -0.02942082       6.48451462        1       0.00000000       0.09493203       0.07422953       0.20720157
Pt       5.10057959      -0.05125318       6.34557430        1       0.00000000      -0.04326508       0.01891890       0.05286571
Pt       7.62115027      -0.08166791       6.44815087        1       0.00000000       0.05385106       0.03429023       0.15598465
Ni       1.25004462       2.21746679       6.38255038        1       1.00000000       0.03050648       0.05041638      -0.04321528
Pt       3.77589243       2.29993764       6.32798473        1       0.00000000       0.00389950       0.11224447       0.02710322
Ni       6.35809943       2.20964379       6.31432766        1       1.00000000      -0.00001729       0.02863276      -0.12646431
Pt       8.91743100       2.26725175       6.24998760        1       0.00000000       0.01592005       0.05700196      -0.04973849
Ni       2.50185479       4.40031857       6.35782130        1       1.00000000       0.00948055       0.07952022      -0.10597731
Ni       5.08850433       4.40812791       6.37796010        1       1.00000000       0.00175190       0.09472332      -0.04017475
Ni       7.57412818       4.34932264       6.38474267        1       1.00000000      -0.10808973       0.01010127       0.02557143
Ni      10.26329068       4.34599507       6.32683919        1       1.00000000       0.15613198       0.00810016      -0.09742854
Ni       3.80933609       6.43274842       6.37221042        1       1.00000000       0.01403323      -0.05282110      -0.01382833
Ni       6.32869494       6.46208708       6.34438353        1       1.00000000       0.02158963       0.00916961      -0.14322393
Pt       8.90694679       6.38817862       6.38992417        1       0.00000000       0.01784352      -0.04481956       0.13445106
Ni      11.49459422       6.46164705       6.31233071        1       1.00000000       0.01591790       0.02630352      -0.11696829
