64
Lattice="10.755921878388767 -0.0009810733472955654 6.729397735738804e-05 5.377111304752653 9.320804883854972 -0.0001791255587403582 0.0 0.0 22.00039803381034" Properties=species:S:1:pos:R:3:tags:I:1:initial_magmoms:R:1:forces:R:3 unique_id=e8e0d73e1210498b93bdd9c122d27186 energy=-402.74641611765196 stress="0.0035299131241367035 -2.0534818683803245e-05 -7.024625518848221e-05 -2.0534818683803245e-05 0.003447318171117996 6.084010029941528e-05 -7.024625518848221e-05 6.084010029941528e-05 -0.0010881773826693572" pbc="T T T"
Pt       0.02825997      -0.02426269       0.10385029        1       0.00000000       0.13116662       0.07906371      -0.27016687
Pt       2.66359431      -0.02629938       0.09174710        1       0.00000000      -0.16053869       0.10230337      -0.19487262
Pt       5.36680715      -0.00309294       0.07907815        1       0.00000000      -0.08079682      -0.01750984      -0.35705112
Pt       8.07582379      -0.00058395       0.08850383        1       0.00000000       0.12412164      -0.00818569      -0.36677617
Pt       1.33621800       2.31813876       0.12552623        1       0.00000000      -0.16010636      -0.16223563      -0.16006977
Pt       4.02933275       2.33031591       0.01402319        0       0.00000000      -0.00035328       0.02483987      -0.00581057
Pt       6.72454387       2.33992804       0.07750756        1       0.00000000       0.00660267       0.09986009      -0.38040303
Pt       9.41960604       2.33846201       0.10362874        1       0.00000000       0.11935920       0.06405689      -0.30744733
Pt       2.69356421       4.65582908       0.08332715        1       0.00000000       0.08057483       0.03970144      -0.34804666
Pt       5.39914120       4.69102237       0.06872947        1       0.00000000      -0.02575838       0.00364758      -0.35612716
Pt       8.05089656       4.69524011       0.00000000        0       0.00000000      -0.03500961      -0.04392047       0.04306215
Pt      10.74482365       4.65327427       0.09431810        1       0.00000000      -0.03666341      -0.13752474      -0.26924027
Pt       4.07413595       6.99284924       0.08270671        1       0.00000000       0.01598980      -0.01477774      -0.34637674
Ni       6.72693124       6.98928658       0.02006988        0       1.00000000      -0.02298968       0.01310525       0.47727003
Pt       9.36821509       6.98601381       0.00393050        0       0.00000000      -0.01311039       0.03645168       0.11894589
Pt      12.09393393       6.98761883       0.08309394        1       0.00000000       0.03663098      -0.03096895      -0.36867145
Ni       1.33542264       0.78881370       2.34306338        2       1.00000000      -0.01108702       0.03071023       0.48112382
Pt       3.99207053       0.78163208       2.36421210        3       0.00000000      -0.13383855       0.00602784       0.47534498
Pt       6.72751022       0.77961174       2.35924261        3       0.00000000       0.01970028       0.04878566       0.50212812
Pt       9.47699315       0.80917088       2.36355373        3       0.00000000       0.21250455       0.09630057       0.43619235
Pt       2.63316143       3.06886567       2.37493011        3       0.00000000      -0.12028028      -0.13273338       0.43531221
Pt       5.36825694       3.10464921       2.36427405        3       0.00000000      -0.06825013      -0.00153933       0.52925828
Pt       8.10126408       3.11264085       2.36395361        3       0.00000000       0.04573918       0.09328195       0.45656918
Ni      10.76420088       3.09086046       2.34574171        2       1.00000000       0.03767630      -0.04921924       0.50875121
Pt       4.03031665       5.43397593       2.36017281        3       0.00000000      -0.00590892      -0.06813618       0.56444685
Pt       6.73235035       5.45420775       2.34191277        2       0.00000000       0.09995056       0.10409369       0.33164160
Pt       9.41963399       5.41363497       2.36556969        3       0.00000000      -0.07186970       0.03044657       0.43925558
Pt      12.08388683       5.40061165       2.36334233        3       0.00000000      -0.06420886      -0.11110315       0.47524826
Pt       5.40806986       7.79134418       2.34788701        2       0.00000000       0.16426138      -0.00442171       0.34139999
Pt       8.04279425       7.78221793       2.34270719        2       0.00000000      -0.02946568      -0.07590741       0.32425383
Pt      10.73896111       7.76083930       2.36098756        3       0.00000000      -0.16279102      -0.04826066       0.45976717
Pt      13.45342976       7.76901870       2.36095885        3       0.00000000       0.07093665       0.03635706       0.51151142
Pt       0.01522467       1.55928983       4.61979970        4       0.00000000       0.10256385       0.01958391      -0.64540391
Pt       2.68796147       1.54701336       4.67383009        5       0.00000000       0.04549685      -0.03603597      -0.35991268
Pt       5.36134456       1.55993864       4.69350591        5       0.00000000      -0.11049467       0.04215830      -0.36587772
Pt       8.06907280       1.55680643       4.66208706        5       0.00000000      -0.00081403      -0.00148527      -0.50934998
Pt       1.32950132       3.87662964       4.64662536        4       0.00000000      -0.08019226       0.00528071      -0.50528912
Pt       4.03452618       3.86970787       4.69374296        5       0.00000000       0.00556466      -0.07723433      -0.38686542
Pt       6.73849621       3.89566268       4.69704207        5       0.00000000       0.12984768       0.09476044      -0.41229290
Pt       9.40903016       3.88666607       4.66945341        5       0.00000000      -0.07338646       0.03826089      -0.39861269
Pt       2.68899344       6.20746661       4.67039131        5       0.00000000       0.02327915      -0.05906136      -0.51484098
Pt       5.39814385       6.22052132       4.68865847        5       0.00000000       0.13947022       0.06014959      -0.39592088
Pt       8.06456321       6.21525023       4.75978751        6       0.00000000      -0.04529584       0.03041703       0.18359355
Pt      10.73644618       6.21676534       4.69524474        5       0.00000000      -0.11793802       0.03695493      -0.35139369
Pt       4.03965920       8.54746825       4.66435647        5       0.00000000       0.04940695       0.02262147      -0.50949565
Pt       6.72613068       8.54146864       4.66623791        5       0.00000000       0.02071955      -0.08115716      -0.42660456
Pt       9.40369905       8.52775033       4.70051703        5       0.00000000      -0.04329783      -0.13036423      -0.38067703
Pt      12.09514081       8.54517475       4.66697371        5       0.00000000      -0.01797214       0.03653803      -0.51443374
Pt       0.02819063      -0.02877486       6.95684475        8       0.00000000       0.11105253       0.08317992       0.28943467
Pt       2.69834303      -0.04275712       6.95088863        8       0.00000000      -0.04154874      -0.13087068       0.25524758
Pt       5.34473110       0.00149835       6.94890322        7       0.00000000      -0.05868723       0.00788399       0.41778340
Pt       8.06396683       0.00093748       6.95133191        8       0.00000000      -0.02123018       0.03439258       0.46593782
Pt       1.37072047       2.32566523       6.95194351        8       0.00000000      -0.05010923      -0.08234387       0.22193924
Ni       4.03573410       2.32923739       6.95594918        8       1.00000000       0.02303886      -0.02484216      -0.35017962
Pt       6.70302875       2.35695878       6.94726563        7       0.00000000      -0.01685691       0.02926149       0.39358164
Pt       9.39778518       2.36101211       6.95282356        8       0.00000000       0.03099034       0.04764412       0.28980618
Pt       2.70573192       4.63670314       6.94908440        7       0.00000000       0.01799457       0.02083241       0.40638788
Pt       5.42047961       4.67167862       6.94692807        7       0.00000000       0.12960193       0.08669338       0.33088088
Ni       8.06164538       4.68644027       6.95328089        8       1.00000000       0.00351144       0.06765769      -0.44993087
Pt      10.70287924       4.68792139       6.94849538        7       0.00000000      -0.11780307       0.02559068       0.27366944
Pt       4.07082241       6.98229394       6.95243977        8       0.00000000      -0.00283449      -0.08199880       0.40202596
Ni       6.74340546       6.97760949       7.00039803        8       1.00000000       0.11199773      -0.05149200      -0.65273308
Ni       9.38669682       6.98109849       6.95317017        8       1.00000000      -0.06662037      -0.02059426      -0.41432068
Pt      12.06631522       6.98723878       6.94973060        7       0.00000000      -0.04164270      -0.01497080       0.43342381
