64
Lattice="10.283961573423229 -0.009896558415243825 0.003704218818733455 5.133410115713976 8.89846639815125 -0.028786486538611177 0.0 0.0 21.64769068180916" Properties=species:S:1:pos:R:3:tags:I:1:initial_magmoms:R:1:forces:R:3 unique_id=ab141c7937bd40b187df54800ce8c160 energy=-374.85029450848197 stress="0.004302886842767185 -8.003802946860548e-05 0.00017983511030593695 -8.003802946860548e-05 0.004273704924441089 -0.0004198365159921438 0.00017983511030593695 -0.0004198365159921438 -0.0025998405614649066" pbc="T T T"
Ni       0.04812160       0.04009429       0.17510369        2       1.00000000       0.19943515       0.10152511      -0.46086746
Ni       2.58957211       0.03067724       0.22568161        2       1.00000000       0.00665324      -0.01000572      -0.12917186
Ni       5.09241367      -0.01528246       0.10203542        1       1.00000000      -0.03426359       0.05931087       0.26428218
Pt       7.72778799      -0.04738588       0.02251805        0       0.00000000      -0.07858637       0.07495744      -0.48587938
Ni       1.28939467       2.23317656       0.12531617        1       1.00000000       0.04228861       0.03658294       0.48628223
Ni       3.81263348       2.22054052       0.21791452        2       1.00000000      -0.00274648       0.01633497      -0.04634222
Pt       6.40040158       2.29841974       0.17762628        2       0.00000000      -0.03065638       0.08752497      -0.81897026
Ni       9.04696875       2.26922305       0.09036349        1       1.00000000      -0.01403099       0.06822351       0.23487958
Ni       2.57372337       4.41775695       0.08804426        1       1.00000000       0.00550254      -0.12058390       0.30313662
Ni       5.08482457       4.44356501       0.18324261        2       1.00000000      -0.16190130       0.01526465      -0.27771186
Ni       7.77633606       4.43556934       0.08611291        1       1.00000000       0.19756561       0.01332159       0.14471610
Ni      10.26867936       4.41087500       0.07936385        1       1.00000000      -0.03496065      -0.00104127       0.27205712
Ni       3.84232011       6.61634208       0.06022139        1       1.00000000      -0.04615359      -0.14729973       0.10105283
Pt       6.46858932       6.66808335       0.00000000        0       0.00000000       0.18676760       0.06651203      -0.42177601
Ni       9.00447456       6.65019067       0.14479965        1       1.00000000      -0.05599541      -0.13939710      -0.08161170
Ni      11.54147784       6.62349443       0.12353314        1       1.00000000      -0.06693128      -0.07173055      -0.24468932
Ni       1.33921582       0.77872383       2.19051946        3       1.00000000       0.06521675       0.09621957      -0.01007243
Ni       3.80824283       0.74889172       2.21182239        3       1.00000000      -0.04293836      -0.00403001       0.09290115
Pt       6.33810403       0.76555062       2.30437785        4       0.00000000      -0.08306895       0.04165129       0.18532600
Pt       9.07503540       0.83388008       2.21129763        3       0.00000000      -0.03131517      -0.00687817       0.04141354
Ni       2.57249546       2.92799656       2.17689474        3       1.00000000      -0.06243303      -0.03876134      -0.02051960
Ni       5.06802199       2.96960100       2.22952506        3       1.00000000      -0.10761129      -0.00124420       0.14017661
Ni       7.77078648       2.99626106       2.22720497        3       1.00000000       0.15490020       0.04451492       0.11026724
Ni      10.28807537       2.96243802       2.20739625        3       1.00000000       0.04866664      -0.00716961       0.02125182
Ni       3.85071473       5.13470449       2.19249222        3       1.00000000      -0.02298408      -0.06760530      -0.01412146
Pt       6.47363002       5.13972067       2.20835694        3       0.00000000       0.08433188      -0.06761746       0.07810535
Ni       8.99002275       5.13613974       2.22803866        3       1.00000000       0.05149995      -0.11129024       0.08496036
Pt      11.54033331       5.07835272       2.17930031        3       0.00000000      -0.04587485      -0.09323914       0.05234983
Pt       5.16804641       7.39764277       2.18552922        3       0.00000000       0.00156230      -0.02774457      -0.03048489
Ni       7.71767337       7.42735150       2.21176942        3       1.00000000      -0.05168896       0.01264281       0.12797646
Pt      10.16799977       7.38603592       2.23906539        3       0.00000000      -0.09050845      -0.04380221       0.15883475
Pt      12.83357853       7.34339942       2.22681425        3       0.00000000      -0.04602075      -0.01368966       0.12185838
Ni       0.00554151       1.49407676       4.42499292        6       1.00000000       0.09252050      -0.08096071      -0.10984326
Pt       2.58203987       1.44597781       4.31322791        5       0.00000000       0.03973584      -0.02668914      -0.04852310
Ni       5.12694235       1.42150263       4.42073348        6       1.00000000      -0.07449727      -0.01194456      -0.02103656
Pt       7.77582440       1.47776353       4.41639968        6       0.00000000       0.11558557       0.05663213       0.09635875
Pt       1.19697738       3.71807034       4.45521474        7       0.00000000      -0.02078480       0.04404980       0.07832895
Pt       3.84824679       3.74878369       4.32377970        5       0.00000000      -0.01239951       0.04038983      -0.06533095
Pt       6.48211998       3.73676874       4.38094047        6       0.00000000      -0.02464032       0.09760989      -0.09125522
Ni       9.00585337       3.72615119       4.41388108        6       1.00000000       0.00073867       0.15028142      -0.08901458
Ni       2.54450999       5.91188470       4.40700450        6       1.00000000      -0.17974988      -0.06162864      -0.15986028
Ni       5.13479097       5.91971303       4.40169149        6       1.00000000       0.03949530      -0.05626105      -0.21258870
Ni       7.76659100       5.90272022       4.38320671        6       1.00000000       0.21993244      -0.01778494      -0.22626815
Ni      10.25169705       5.92095298       4.38622509        6       1.00000000      -0.06760119       0.01275455      -0.19970387
Pt       3.81540189       8.06692520       4.43453945        6       0.00000000       0.00455755      -0.06277524      -0.01554513
Pt       6.47494516       8.07326406       4.35900945        6       0.00000000       0.16654577      -0.02337723      -0.09062004
Ni       9.03531162       8.11658822       4.38889868        6       1.00000000       0.02656636       0.00393571      -0.04022430
Ni      11.50359146       8.12228257       4.41718507        6       1.00000000      -0.15005396      -0.00312012      -0.10847576
Pt      -0.04992939       0.02688003       6.63599253       10       0.00000000      -0.05164276       0.12758419       0.19852535
Pt       2.58501250      -0.03904529       6.64769068       10       0.00000000       0.00386602      -0.04616749       0.17512309
Ni       5.16619765      -0.04461028       6.54962071        9       1.00000000      -0.01893525      -0.00931106      -0.14040168
Ni       7.69157903      -0.03816625       6.48441800        9       1.00000000      -0.08394689       0.01741274       0.54170935
Ni       1.24115347       2.24804516       6.58140084       10       1.00000000      -0.01755450      -0.04502175      -0.15608247
Pt       3.82064569       2.23682100       6.62777311       10       0.00000000       0.17124018       0.12332120       0.13500369
Pt       6.46691064       2.17615174       6.54861600        9       0.00000000      -0.17632108       0.08358458       0.89923478
Ni       9.03391197       2.24964323       6.57013401       10       1.00000000       0.03330040       0.13162042      -0.18070148
Ni       2.53648488       4.44430206       6.57362953       10       1.00000000       0.02079775       0.01984376      -0.14229572
Pt       5.13466027       4.53767836       6.62198466       10       0.00000000       0.04064849      -0.08297997       0.19494602
Ni       7.75240447       4.41591689       6.56002580       10       1.00000000       0.01468841      -0.11877436      -0.15247053
Ni      10.26453704       4.38249591       6.57062829       10       1.00000000      -0.05045005       0.03274403      -0.14323413
Ni       3.84077614       6.65230711       6.54975429        9       1.00000000       0.00021264      -0.00516210      -0.03145553
Ni       6.41811656       6.64291720       6.44781415        8       1.00000000       0.06876265      -0.01520109       0.35980153
Pt       8.98978511       6.57225285       6.53493903        9       0.00000000      -0.00049532      -0.00853191      -0.09412843
Pt      11.61082243       6.63722402       6.53890982        9       0.00000000      -0.06384229      -0.02752940      -0.13958134
