64
Lattice="10.623354928798072 0.012967974961176675 -0.0011531702609684268 5.322908060151053 9.219973039869444 -0.017996936508495362 0.0 0.0 21.86238353045026" Properties=species:S:1:pos:R:3:tags:I:1:initial_magmoms:R:1:forces:R:3 unique_id=e6a31c19086a4917bc82e4deaff0999a stress="0.008330991021535433 0.00016145073423090345 -3.931937894911694e-05 0.00016145073423090345 0.00876251192672553 -7.68970808115509e-05 -3.931937894911694e-05 -7.68970808115509e-05 0.00028786632861480324" energy=-393.24016709521237 pbc="T T T"
Pt       0.03790934       0.00300764       0.01589520        0       0.00000000      -0.04163201      -0.03438320      -0.01709240
Ni       2.67301174       0.01734087       0.14363190        1       1.00000000       0.04712461       0.01735504       0.10322674
Pt       5.24250947       0.02919811       0.04792068        0       0.00000000      -0.05555009       0.10563330       0.20175974
Pt       7.93170505      -0.01150279       0.09734234        1       0.00000000      -0.09616896       0.08716622      -0.26503728
Pt       1.38918499       2.27667215       0.01786152        0       0.00000000      -0.02962287       0.03954531       0.11641463
Ni       3.97655425       2.28474756       0.14311947        1       1.00000000       0.00320010      -0.02224442       0.22814142
Pt       6.60653748       2.29655272       0.01453644        0       0.00000000       0.02663315      -0.07472804       0.07990853
Pt       9.31647617       2.32158500       0.02964700        0       0.00000000       0.06731803      -0.04134625       0.15361330
Pt       2.64852988       4.60762332       0.12446641        1       0.00000000      -0.05143595       0.04392868      -0.41419810
Pt       5.29995599       4.58182980       0.11822888        1       0.00000000       0.08086597       0.06468526      -0.34867542
Pt       7.97444609       4.61643571       0.11163624        1       0.00000000      -0.12453638       0.07530032      -0.26445845
Pt      10.66144276       4.64093435       0.05207697        1       0.00000000       0.11229832      -0.08331875       0.07201846
Pt       3.96112281       6.90888691       0.09357289        1       0.00000000       0.07478472      -0.03779798      -0.71298699
Pt       6.67056230       6.93394207       0.11891681        1       0.00000000      -0.00637517      -0.17605277      -0.59789659
Pt       9.33472776       6.95003014       0.00000000        0       0.00000000      -0.02726290       0.00695663      -0.00849529
Ni      11.94618517       6.92316401       0.11967354        1       1.00000000      -0.03307850       0.00239587       0.10354815
Pt       1.34944713       0.80129180       2.33196403        2       0.00000000       0.03274588       0.02790553       0.18058246
Ni       3.97923310       0.77629487       2.29063502        2       1.00000000      -0.00264236       0.03772924       0.21963033
Pt       6.61432222       0.77511819       2.39887091        3       0.00000000       0.00564605       0.09365122       0.29817167
Pt       9.32262841       0.84043685       2.38969537        3       0.00000000       0.05413382       0.13270571       0.24861367
Pt       2.63826033       3.07005634       2.33743419        2       0.00000000      -0.04653381      -0.05440152       0.18298910
Pt       5.30902408       3.06755654       2.37696963        3       0.00000000       0.02004212      -0.12986961       0.29829555
Pt       7.97580660       3.10347926       2.44417851        3       0.00000000      -0.07675096      -0.01517618       0.36070116
Ni      10.63677977       3.09386997       2.33775026        2       1.00000000       0.02937484       0.01590425       0.22068731
Pt       3.97951230       5.34297402       2.35809820        3       0.00000000      -0.02595097      -0.01730511       0.30237323
Ni       6.65450675       5.36332306       2.31380668        2       1.00000000       0.05273303      -0.02354215       0.37189976
Pt       9.34768669       5.33469999       2.35379819        3       0.00000000       0.12145876      -0.00886620       0.16582091
Ni      11.94251274       5.36590743       2.29671582        2       1.00000000      -0.04978626      -0.04884987       0.32187901
Pt       5.32581103       7.67030847       2.34060707        2       0.00000000      -0.06107823       0.10125847       0.32274131
Pt       8.00948412       7.70142391       2.31406839        2       0.00000000       0.14429301       0.02710119       0.25992515
Pt      10.63822351       7.68201249       2.32162812        2       0.00000000      -0.03644311      -0.06312475       0.16904875
Pt      13.24279535       7.66158531       2.32166761        2       0.00000000      -0.01476257      -0.03303485       0.27950197
Ni      -0.03934638       1.56798612       4.61559859        5       1.00000000      -0.13767819       0.07098453      -0.08582253
Pt       2.66365190       1.56995187       4.57363591        5       0.00000000       0.08185474       0.10736471      -0.20797479
Pt       5.39077579       1.56553876       4.62280738        5       0.00000000       0.13449916       0.04194485      -0.03519010
Ni       7.98883882       1.58895833       4.60441904        5       1.00000000       0.08514200       0.24933373      -0.15571332
Pt       1.23241636       3.77972326       4.55900068        5       0.00000000      -0.21924845      -0.13431967      -0.22809117
Ni       3.99687971       3.81755112       4.57018383        5       1.00000000      -0.02830420      -0.03998253      -0.29033855
Ni       6.67098452       3.80563349       4.56834407        5       1.00000000       0.07617906      -0.12009411      -0.27171504
Ni       9.29686365       3.77538413       4.58485873        5       1.00000000       0.02055216      -0.22908315      -0.17469164
Pt       2.63142919       6.12734559       4.53531472        4       0.00000000      -0.06717184      -0.02265863      -0.29221333
Pt       5.33834291       6.06327977       4.51904017        4       0.00000000      -0.02749923      -0.06852895      -0.33732224
Pt       7.97905271       6.07263727       4.53330138        4       0.00000000       0.03859983      -0.02774786      -0.39118127
Pt      10.62278872       6.11865227       4.58966802        5       0.00000000      -0.10102574      -0.07143840      -0.12385759
Pt       3.96236456       8.53431498       4.56820353        5       0.00000000      -0.01678902       0.09706450      -0.24288640
Pt       6.62392260       8.49857147       4.57856721        5       0.00000000      -0.04739697       0.10778963      -0.20513400
Pt       9.35626566       8.46663522       4.59715449        5       0.00000000       0.03651644       0.01015284      -0.18418949
Ni      11.96158237       8.46855653       4.57789779        5       1.00000000      -0.00293111      -0.00929605      -0.26773131
Ni      -0.00106051       0.03852408       6.73831443        6       1.00000000      -0.01870346       0.17872463      -0.16377000
Pt       2.65751841       0.00875978       6.86238353        8       0.00000000      -0.04425743       0.04031772       0.07386869
Ni       5.31869230      -0.00252259       6.75313237        7       1.00000000       0.03980453       0.01439181      -0.08514534
Pt       7.93051164       0.10811771       6.71840528        6       0.00000000      -0.13163470       0.20703366       0.31782859
Ni       1.28319474       2.28373193       6.73391670        6       1.00000000      -0.18800867      -0.08057318      -0.29679467
Pt       4.01328246       2.26250354       6.83493157        7       0.00000000      -0.00248852       0.04568758      -0.00661771
Ni       6.66202985       2.29695800       6.72093195        6       1.00000000       0.16295764       0.09046074      -0.14021372
Ni       9.31995888       2.30020598       6.69945307        6       1.00000000       0.10039834      -0.02072318      -0.50977752
Pt       2.60708160       4.55782995       6.73929694        6       0.00000000       0.04453126      -0.08619737       0.32443956
Pt       5.34911181       4.54693141       6.71358698        6       0.00000000       0.08873976      -0.17596568       0.39805532
Pt       8.05236513       4.52311631       6.70779874        6       0.00000000       0.10965905      -0.23230007       0.21145231
Ni      10.61525878       4.58602997       6.73546272        6       1.00000000      -0.06898017      -0.11170201      -0.28560755
Pt       3.98786493       6.94814807       6.74276328        6       0.00000000      -0.03445591       0.11018855       0.61685566
Pt       6.68285332       6.91704435       6.75371122        7       0.00000000       0.09770655      -0.06577540       0.54294275
Ni       9.31029315       6.90462129       6.73586167        6       1.00000000      -0.10078905      -0.05991561      -0.03637741
Pt      11.87668157       6.94479293       6.81366607        7       0.00000000       0.02718084       0.16968180      -0.09973797
