64
Lattice="10.317844213181926 0.009346904890674607 -0.003993181079326239 5.167016763673045 8.90905014320837 -0.00854500440868155 0.0 0.0 21.542839819449554" Properties=species:S:1:pos:R:3:tags:I:1:initial_magmoms:R:1:forces:R:3 unique_id=74babfc3f2a14d3f9dc37184914c0901 energy=-375.81090640807986 stress="0.005469583256530259 0.000271090003398416 0.000132831696528511 0.000271090003398416 0.006079083348088096 -0.00011839404433545118 0.000132831696528511 -0.00011839404433545118 -0.0015968893743527682" pbc="T T T"
Ni       0.00376604       0.02340290       0.11390936        1       1.00000000       0.10066174      -0.02419456      -0.13935324
Ni       2.54762576       0.01347790       0.14007612        1       1.00000000      -0.04550746       0.07940255      -0.12556718
Pt       5.15409976      -0.02626340       0.07219326        1       0.00000000      -0.00928734       0.22489888      -0.92578506
Ni       7.76871962      -0.03026428       0.11096183        1       1.00000000      -0.06811082      -0.13024053      -0.20080467
Ni       1.25415116       2.23379490       0.03980925        0       1.00000000      -0.09308233       0.04368128       0.47751893
Pt       3.79221732       2.28502182       0.12467551        1       0.00000000       0.02224612       0.01495712      -0.49945044
Pt       6.49539637       2.23082380       0.04862447        0       0.00000000       0.00572212      -0.01168977      -0.03158245
Ni       9.07782099       2.23308603       0.07416356        1       1.00000000       0.08971143       0.15643105      -0.03168591
Ni       2.57210425       4.48177043       0.00718669        0       1.00000000       0.08397305       0.01201649       0.28225975
Ni       5.13299290       4.48278982       0.11663049        1       1.00000000      -0.05386893       0.09464689       0.10288244
Pt       7.82102207       4.47642701       0.03350839        0       0.00000000       0.02356572       0.01363112       0.06491479
Ni      10.35497244       4.45295130       0.00260171        0       1.00000000       0.07129389      -0.10938795       0.34151767
Ni       3.84372796       6.67691757       0.12084650        1       1.00000000      -0.01239569      -0.06429291       0.09558775
Pt       6.42389294       6.72472814       0.12066727        1       0.00000000      -0.12719053       0.02616685      -0.47406450
Ni       9.04821299       6.67097703       0.00798180        0       1.00000000      -0.05279170      -0.01461829       0.12957051
Ni      11.64152140       6.65488665       0.00000000        0       1.00000000       0.10773823       0.04736651       0.22389593
Ni       1.29726667       0.76506505       2.10020565        2       1.00000000      -0.00364410       0.13447608      -0.03489335
Ni       3.84882543       0.76779786       2.16001421        3       1.00000000       0.05514370       0.01664231       0.20327216
Ni       6.45299049       0.78794437       2.17845700        3       1.00000000      -0.05302957       0.19182462       0.28401682
Pt       9.04036277       0.79057483       2.11803420        2       0.00000000       0.01244693       0.10086805       0.16532238
Ni       2.57087177       2.97667659       2.16444677        3       1.00000000       0.03510536       0.05556887       0.05849743
Ni       5.15199366       2.99137518       2.17870576        3       1.00000000      -0.07410387       0.02416518       0.19056043
Ni       7.75857472       2.99313132       2.17557592        3       1.00000000       0.06615722       0.07339159       0.19643389
Ni      10.32146728       2.97310180       2.14186981        2       1.00000000       0.04789876       0.01471227       0.10359534
Ni       3.90669816       5.18937548       2.15237896        3       1.00000000       0.12881878      -0.09351090       0.17320647
Ni       6.43745873       5.19406550       2.17197106        3       1.00000000      -0.05195280       0.03059039       0.16107252
Ni       9.00689914       5.16814878       2.16469153        3       1.00000000      -0.07512778      -0.22209906       0.22360690
Pt      11.66689617       5.13161340       2.10742981        2       0.00000000       0.10312796      -0.13538143       0.07279974
Ni       5.13932635       7.38982311       2.13328378        2       1.00000000      -0.14607727      -0.15702993       0.10798073
Ni       7.73477708       7.41661707       2.12749581        2       1.00000000       0.04337817      -0.09916228       0.03258616
Pt      10.30157629       7.36801513       2.11439729        2       0.00000000      -0.02139783      -0.22039117      -0.27450941
Ni      12.93184348       7.40337204       2.09082263        2       1.00000000       0.02455595      -0.08512507       0.05235231
Ni      -0.01418253       1.55014904       4.28739189        5       1.00000000      -0.07770664       0.09042362      -0.18541051
Pt       2.53685451       1.58065776       4.19851020        4       0.00000000      -0.04405305      -0.00520072      -0.02409568
Ni       5.17645986       1.52531549       4.26444711        5       1.00000000      -0.02671914       0.07751881      -0.37983777
Ni       7.74623652       1.52631323       4.28056292        5       1.00000000       0.05841685      -0.04661545      -0.28596922
Ni       1.28764848       3.70315658       4.33187427        5       1.00000000      -0.00516048      -0.03518267      -0.04489917
Ni       3.85842792       3.76348023       4.25204400        5       1.00000000      -0.00693812       0.11375579      -0.31163467
Pt       6.47391853       3.70579952       4.22601531        4       0.00000000      -0.06327001       0.02330916      -0.01651225
Ni       9.03650938       3.69334732       4.26897188        5       1.00000000       0.02996629      -0.14153353      -0.37664488
Ni       2.59843379       5.86528125       4.29568214        5       1.00000000       0.07806802      -0.17374973      -0.17154690
Ni       5.14287324       5.89210702       4.24400091        4       1.00000000      -0.04041879      -0.11252312      -0.38752444
Ni       7.75055571       5.88640332       4.26353759        5       1.00000000      -0.03776129      -0.09166957      -0.34366622
Pt      10.31667028       5.83092954       4.36500017        6       0.00000000       0.05471009      -0.02387576      -0.00889679
Pt       3.88006927       8.13424742       4.23111012        4       0.00000000       0.03116327      -0.05203713       0.01277276
Pt       6.43283014       8.13656981       4.16487291        4       0.00000000      -0.09952550       0.00348388      -0.20376317
Pt       9.00105005       8.15482244       4.24608859        4       0.00000000      -0.09383664       0.02104337      -0.06151418
Pt      11.64814606       8.17918636       4.22095983        4       0.00000000       0.06111713      -0.05495013      -0.06991837
Pt       0.00907772       0.04902317       6.51808653        8       0.00000000      -0.06205588       0.10535616       0.20407765
Pt       2.57898021       0.00735845       6.54283982        8       0.00000000       0.08910972       0.03838370       0.39119872
Pt       5.16335343      -0.02991998       6.41543755        7       0.00000000      -0.07759760       0.20361362       1.05127759
Pt       7.71712029       0.03717410       6.52422118        8       0.00000000       0.04585951       0.21607927       0.31586730
Ni       1.27439798       2.29660603       6.45420574        8       1.00000000      -0.05162706       0.11791750      -0.27642927
Pt       3.83211542       2.27944422       6.39867494        7       0.00000000       0.08199549      -0.04756310       0.47216238
Ni       6.46665487       2.24644391       6.37826587        7       1.00000000      -0.00488355      -0.04955057       0.05869724
Pt       9.04043578       2.35093487       6.43846498        7       0.00000000       0.00939706       0.01260595      -0.03811398
Ni       2.50567523       4.44646426       6.43970370        7       1.00000000      -0.10462010      -0.02961041      -0.34942571
Pt       5.18099435       4.41968381       6.46951229        8       0.00000000       0.00126856       0.04711931       0.06283021
Ni       7.78416145       4.46349775       6.37438464        7       1.00000000       0.08670298       0.12361457      -0.06613192
Ni      10.34763351       4.47071838       6.46737718        8       1.00000000       0.04473863      -0.05744790      -0.19851124
Pt       3.78894767       6.61165020       6.48409202        8       0.00000000       0.07372413      -0.06155137       0.03191313
Pt       6.51726894       6.62181860       6.39506312        7       0.00000000      -0.06789471      -0.10264568       0.42771591
Ni       9.06411970       6.61466902       6.46639708        8       1.00000000      -0.01858948      -0.09756473      -0.10971793
Ni      11.58297051       6.62499781       6.47059881        8       1.00000000       0.00244319       0.00073260      -0.12410347
