64
Lattice="10.309285085197363 -0.024468863480852258 0.0322720872149469 5.133451885222533 8.954460980845852 0.040589425819547956 0.02635004887040573 0.02305486984680599 8.863125477345228" Properties=species:S:1:pos:R:3:tags:I:1:initial_magmoms:R:1:forces:R:3 unique_id=a114ac15ef3148a39a336883cf383383 stress="0.000336802399661211 2.9998853048444375e-06 -3.3293188744946126e-05 2.9998853048444375e-06 0.00033010702051706337 -1.4918292620945048e-05 -3.3293188744946126e-05 -1.4918292620945048e-05 0.00031574727144072917" energy=-400.0490865618746 pbc="T T T"
Ni       0.04488668       0.00448199       0.16954114        4       1.00000000       0.11756808       0.07007442       0.29062005
Ni       2.54197420       0.00499762       0.20744681        4       1.00000000      -0.09477715       0.08060018       0.44990789
Pt       5.09240967      -0.03775358       0.15362623        4       0.00000000      -0.10247311       0.01714562       0.23119938
Pt       7.76482144      -0.12405011       0.19822781        4       0.00000000       0.04928051      -0.08010465       0.33121516
Ni       1.29646002       2.24973956       0.11613189        4       1.00000000       0.02902441       0.08003729       0.30072541
Pt       3.77567623       2.29380744       0.21533162        4       0.00000000      -0.01409892       0.16711624       0.13708777
Pt       6.42637768       2.26490866       0.15245146        4       0.00000000       0.05055944       0.11216343       0.03815432
Pt       9.12404912       2.25842984       0.17945961        4       0.00000000       0.09963582       0.02782300       0.18641088
Ni       2.56335886       4.50420862       0.09420609        4       1.00000000       0.07999405       0.08851495       0.05179449
Ni       5.11006485       4.50363727       0.20986625        4       1.00000000      -0.02901399       0.09564756       0.39047570
Pt       7.76702997       4.53332273       0.14494425        4       0.00000000       0.05136390       0.09850739      -0.08911333
Ni      10.34796065       4.48658456       0.11708584        4       1.00000000       0.13892956       0.07238935       0.14043176
Ni       3.83753498       6.66875049       0.13853314        4       1.00000000      -0.03481707      -0.20196722       0.28273379
Pt       6.39716694       6.76035031       0.22804029        4       0.00000000      -0.04295112       0.05485608      -0.00420400
Ni       9.02284570       6.68949301       0.12880808        4       1.00000000       0.01989326       0.01571771       0.14520204
Ni      11.59334084       6.64178607       0.12152676        4       1.00000000       0.03440409      -0.09144032       0.04898496
Ni       1.32149181       0.74236597       2.21348618        3       1.00000000       0.09847315      -0.03186552      -0.02635869
Ni       3.84525692       0.76518558       2.25480723        3       1.00000000       0.04751607       0.01233453      -0.02535919
Ni       6.42220302       0.78004730       2.27658702        3       1.00000000      -0.10300904       0.08388862      -0.00960801
Pt       9.11075864       0.72318185       2.29640001        3       0.00000000       0.12367604       0.03992190      -0.14657440
Ni       2.57142367       2.99062057       2.26501745        3       1.00000000       0.01524547       0.07666272       0.05772878
Ni       5.13293607       3.00995978       2.29344641        3       1.00000000      -0.14631801       0.06221081       0.08973197
Ni       7.73020751       3.01929303       2.28160979        3       1.00000000       0.08397548       0.13624561      -0.05733233
Ni      10.33474211       2.97751801       2.29995260        3       1.00000000       0.07098780       0.01151492       0.16457934
Ni       3.89833012       5.22406498       2.26170936        3       1.00000000       0.12403611      -0.03818269       0.12817205
Ni       6.41911720       5.23183895       2.28922360        3       1.00000000      -0.04712550       0.13581583      -0.03990007
Ni       8.98132933       5.19033827       2.29389170        3       1.00000000      -0.08971772      -0.13291036       0.16102940
Pt      11.64483349       5.16208015       2.21205206        3       0.00000000       0.12174399      -0.07427720       0.07927307
Ni       5.15742533       7.42996821       2.28709400        3       1.00000000       0.08092675      -0.18643731       0.05060571
Ni       7.67939275       7.45979801       2.28778774        3       1.00000000      -0.17584714      -0.07395563       0.04407931
Pt      10.26035535       7.40077305       2.25715738        3       0.00000000      -0.08569608      -0.08919682      -0.30236709
Ni      12.91780451       7.38678050       2.29472196        3       1.00000000       0.18515058      -0.26741733       0.03516697
Ni       0.02532508       1.51135025       4.38945842        2       1.00000000      -0.00319106      -0.01203211      -0.04101575
Pt       2.56006984       1.50321735       4.30584804        2       0.00000000       0.01938636      -0.04846054       0.03620052
Ni       5.15637249       1.52628498       4.38450788        2       1.00000000      -0.09689335       0.05392306      -0.18569814
Pt       7.73418281       1.54526423       4.37489995        2       0.00000000      -0.00242611       0.00340983       0.05443914
Pt       1.29759671       3.73534471       4.45927169        2       0.00000000      -0.00602843      -0.02879381       0.04961570
Ni       3.87458591       3.78355373       4.37830052        2       1.00000000      -0.03143411       0.08282309      -0.22965245
Pt       6.42437123       3.79888966       4.36350169        2       0.00000000      -0.09787992       0.01048404      -0.00406088
Ni       9.01231654       3.75125506       4.40462449        2       1.00000000      -0.08691354      -0.01060668      -0.30109382
Ni       2.62042118       5.94473468       4.45134971        2       1.00000000       0.07309979      -0.15843484      -0.07700755
Ni       5.14628448       5.95996831       4.38664848        2       1.00000000       0.03194515      -0.11259809      -0.23547065
Ni       7.70772881       5.95240888       4.40664469        2       1.00000000      -0.12075027      -0.01054637      -0.29671131
Pt      10.26055945       5.90658892       4.51839440        2       0.00000000      -0.03531571      -0.02178564      -0.00150526
Pt       3.94512831       8.11784931       4.39179677        2       0.00000000       0.01487953      -0.11096343       0.16848654
Ni       6.43010350       8.18719561       4.38595496        2       1.00000000      -0.04519830      -0.09322822      -0.23062745
Pt       8.92697046       8.17946649       4.39601115        2       0.00000000      -0.05327462      -0.01874466       0.06889920
Pt      11.61651602       8.16551024       4.37902868        2       0.00000000       0.03832394      -0.02442821      -0.03275938
Pt       0.02265991       0.03512881       6.59427220        1       0.00000000       0.02336021       0.03474392       0.08802172
Pt       2.58626050       0.01024779       6.64569614        1       0.00000000       0.01450216       0.01188608       0.22699087
Pt       5.17765820      -0.02990798       6.53196337        1       0.00000000       0.05833776      -0.08209847      -0.41342010
Pt       7.74949019      -0.05498627       6.57893860        1       0.00000000      -0.04220392      -0.05504260      -0.21214683
Ni       1.29325795       2.30508960       6.59474638        1       1.00000000      -0.00702568       0.10218874      -0.04874911
Pt       3.84404385       2.30447376       6.52471353        1       0.00000000      -0.11088637       0.04525904      -0.21163843
Ni       6.46287118       2.26935892       6.53560711        1       1.00000000      -0.02235608       0.08044616      -0.22090312
Pt       9.06342866       2.35221745       6.53582705        1       0.00000000      -0.03089472       0.13842713      -0.27994964
Ni       2.54176460       4.53600548       6.59528420        1       1.00000000      -0.11479338       0.11147224      -0.12645480
Pt       5.12322677       4.51231808       6.61613573        1       0.00000000      -0.07332222       0.02190341       0.13457434
Ni       7.76845296       4.49684354       6.52869025        1       1.00000000       0.02865688       0.08936457      -0.30837693
Ni      10.33385445       4.50859922       6.63980498        1       1.00000000       0.04969709       0.09906018       0.01461275
Ni       3.82595123       6.68756326       6.59929449        1       1.00000000      -0.10705638      -0.11326515      -0.11993332
Pt       6.47489487       6.68492563       6.51174023        1       0.00000000       0.03077072       0.01570714      -0.20236519
Ni       9.04531517       6.65940482       6.63467770        1       1.00000000       0.01512049      -0.14220597      -0.05181305
Ni      11.60666705       6.64829845       6.64224022        1       1.00000000       0.03322437      -0.12929700      -0.14498067
