64
Lattice="10.262251251105518 0.003823927833808006 0.013688507355858895 5.1344372441990735 8.872178295079436 0.006088399167653472 0.011176619454062795 -0.000712626466408774 8.783799990254263" Properties=species:S:1:pos:R:3:tags:I:1:initial_magmoms:R:1:forces:R:3 unique_id=679f5bcb930a4d22bc023c2c8108dfc0 stress="0.00023636119915843024 5.143719786893031e-06 -2.3487436165066714e-05 5.143719786893031e-06 0.00023354955700841118 -3.868528343373939e-06 -2.3487436165066714e-05 -3.868528343373939e-06 0.00023137466662544182" energy=-396.1499980771049 pbc="T T T"
Ni       0.01308103      -0.00624481       0.17996144        4       1.00000000       0.00272243       0.02024550       0.34010458
Ni       2.53490808       0.01191415       0.21226194        4       1.00000000      -0.03983642       0.06075883       0.43021028
Pt       5.12471012      -0.04043826       0.14932297        4       0.00000000      -0.00397667      -0.04103129       0.31508362
Ni       7.72320243      -0.05472124       0.19508390        4       1.00000000       0.03550025      -0.07960966       0.36220000
Ni       1.29173838       2.22724965       0.10976579        4       1.00000000       0.03781118       0.06610671       0.24770194
Pt       3.76866611       2.27413567       0.19802103        4       0.00000000      -0.00940653       0.11713451       0.18562359
Pt       6.41881716       2.23076684       0.12679809        4       0.00000000       0.06837119       0.09547679       0.01022397
Pt       9.07582312       2.22273070       0.13265243        4       0.00000000       0.12607921      -0.01095406       0.10955248
Ni       2.55713632       4.47254599       0.08071742        4       1.00000000       0.05504179       0.11605611       0.05664548
Ni       5.09374678       4.47298312       0.19688866        4       1.00000000      -0.04742520       0.10438471       0.36402323
Pt       7.74424686       4.49597211       0.11387099        4       0.00000000       0.06224824       0.09045007      -0.06132989
Ni      10.31810949       4.46664537       0.08612455        4       1.00000000       0.16374333       0.07931686       0.08228987
Ni       3.81343909       6.64611363       0.11861672        4       1.00000000      -0.07450494      -0.04362715       0.22826464
Pt       6.37612892       6.70856387       0.19048914        4       0.00000000      -0.07656833       0.02977968       0.02777322
Ni       9.00249516       6.64474298       0.08980734        4       1.00000000       0.01937943       0.00745165       0.06282172
Ni      11.58235391       6.62083269       0.08709314        4       1.00000000       0.10444373      -0.04209332       0.05364601
Ni       1.29766392       0.73697806       2.19078878        3       1.00000000      -0.06164499      -0.01202087       0.00052734
Ni       3.82903107       0.75831769       2.23537661        3       1.00000000       0.06855250      -0.01713585       0.03043990
Ni       6.41485509       0.77782005       2.25840164        3       1.00000000      -0.07231448       0.08023049       0.09476592
Pt       8.99831946       0.73485468       2.26153663        3       0.00000000      -0.00308917       0.15270756      -0.03596877
Ni       2.55705736       2.96569055       2.24359880        3       1.00000000       0.02287833       0.06537877       0.00321890
Ni       5.11995150       2.98173813       2.25940538        3       1.00000000      -0.12220028       0.01841965       0.06343142
Ni       7.70663764       2.98258748       2.26535132        3       1.00000000       0.14946259       0.01360160      -0.03700543
Ni      10.28760459       2.96487960       2.27233520        3       1.00000000       0.03057634      -0.04298725       0.14746876
Ni       3.88421022       5.17374664       2.22465509        3       1.00000000       0.06515442      -0.00305664       0.11962816
Ni       6.40119977       5.18286859       2.25208176        3       1.00000000      -0.01089260       0.09338253      -0.02389217
Ni       8.96037476       5.14943090       2.26518226        3       1.00000000      -0.05593099      -0.17074773       0.14900417
Pt      11.59376048       5.11467637       2.23552657        3       0.00000000       0.09923118      -0.08542422       0.10953161
Ni       5.13957009       7.36105201       2.24528475        3       1.00000000       0.02893819      -0.14552978       0.04742196
Ni       7.66382415       7.39097135       2.23842199        3       1.00000000      -0.17127170      -0.10382316       0.02106896
Pt      10.23682028       7.32326499       2.21848545        3       0.00000000      -0.07754437      -0.11259356      -0.20515343
Ni      12.86721392       7.35881303       2.18405647        3       1.00000000       0.08127359      -0.19787081      -0.01349521
Ni       0.00927595       1.52490008       4.33388963        2       1.00000000      -0.06139787       0.10352831      -0.08669353
Pt       2.50623854       1.54072979       4.26196541        2       0.00000000      -0.01572477       0.01462171       0.11348261
Ni       5.14960180       1.50646569       4.32643675        2       1.00000000      -0.08504236      -0.00561302      -0.16531326
Ni       7.70157182       1.50517864       4.34734338        2       1.00000000       0.01196417      -0.02167414      -0.08688808
Ni       1.26424161       3.72865527       4.39560377        2       1.00000000      -0.06641156       0.04045766       0.03379971
Ni       3.83293575       3.75099508       4.31455210        2       1.00000000      -0.05414401       0.07490365      -0.18963208
Pt       6.44180423       3.70205577       4.30444468        2       0.00000000      -0.04663054      -0.00888778       0.06310483
Ni       9.02294480       3.74109382       4.32670782        2       1.00000000       0.08522988       0.05197501      -0.27634858
Ni       2.58008654       5.84934095       4.39598733        2       1.00000000       0.01550968      -0.14242415      -0.04019352
Ni       5.13016258       5.89143262       4.31153416        2       1.00000000       0.06926019      -0.17301182      -0.20140937
Ni       7.72343313       5.87676726       4.33212928        2       1.00000000       0.02048316      -0.10761488      -0.25825066
Ni      10.26637436       5.84551559       4.42008753        2       1.00000000       0.02413048      -0.07269487      -0.02834083
Pt       3.91939797       8.05958824       4.33439754        2       0.00000000       0.03747446      -0.15620125       0.23851366
Ni       6.41434081       8.11222914       4.30373565        2       1.00000000      -0.05285960      -0.04469355      -0.20312234
Pt       8.91410120       8.07071520       4.32921853        2       0.00000000      -0.03598983       0.00655074       0.10443668
Pt      11.58807212       8.09587821       4.30970187        2       0.00000000      -0.00053085      -0.07177050       0.03467935
Pt       0.01359433       0.02247506       6.54291216        1       0.00000000       0.02892796       0.08315540       0.11596520
Pt       2.56625553       0.00369650       6.57715218        1       0.00000000      -0.01611290       0.04284818       0.25111471
Pt       5.14404262      -0.03673967       6.46605995        1       0.00000000       0.05719813      -0.08094340      -0.38544883
Pt       7.69956589      -0.03271196       6.57948169        1       0.00000000      -0.05527016      -0.04101784       0.15968867
Ni       1.27554419       2.29368132       6.49976290        1       1.00000000      -0.06285843       0.23681901      -0.17519875
Pt       3.81800318       2.27847274       6.44741304        1       0.00000000      -0.10644213       0.09245607      -0.26448403
Ni       6.43689184       2.23933004       6.43555059        1       1.00000000      -0.01731591       0.02818331      -0.26278965
Pt       8.99864524       2.33118127       6.39960891        1       0.00000000      -0.02412109       0.15459539      -0.36842039
Ni       2.51027850       4.47621999       6.48880849        1       1.00000000      -0.15465118       0.04492684      -0.21601578
Pt       5.10475358       4.45986890       6.53051596        1       0.00000000      -0.05738828       0.03879679       0.12425198
Ni       7.74469153       4.45509379       6.43181989        1       1.00000000       0.07893073       0.09867953      -0.31163650
Ni      10.29951370       4.48201146       6.48982338        1       1.00000000       0.05135321       0.08355600      -0.21252989
Ni       3.80764203       6.61078700       6.51257927        1       1.00000000      -0.12225993      -0.09528238      -0.09983340
Pt       6.46139243       6.61065358       6.41344578        1       0.00000000       0.06561267       0.03237112      -0.30234334
Ni       9.03049004       6.57232961       6.50856083        1       1.00000000       0.11189805      -0.20292906      -0.20546446
Ni      11.55392661       6.57628993       6.52100443        1       1.00000000      -0.01762264      -0.10604277      -0.18450697
