64
Lattice="10.021626964103469 -0.01216314000933049 0.017719950000143987 5.000279893813862 8.705859162354587 0.03174283738486009 0.014468278589327968 0.021574169553656358 8.58554492803953" Properties=species:S:1:pos:R:3:tags:I:1:initial_magmoms:R:1:forces:R:3 unique_id=8c6635fdb8b94d42875709b3a0bace29 stress="0.0010381854410068045 -2.674337730563305e-06 -3.2487637879760057e-06 -2.674337730563305e-06 0.0010427686534354441 -6.605451814042211e-06 -3.2487637879760057e-06 -6.605451814042211e-06 0.0009217245488886694" energy=-385.9929380196031 pbc="T T T"
Ni      -0.01367352      -0.05027117       0.10245614        4       1.00000000       0.03001957      -0.02450237       0.11121248
Ni       2.50016784      -0.07447412       0.11784303        4       1.00000000      -0.05236953      -0.03950665       0.16899083
Ni       4.98350588      -0.02061999       0.07780453        4       1.00000000      -0.14628897      -0.02981465       0.05236894
Ni       7.55834934       0.03396304       0.06773124        4       1.00000000       0.07056101       0.03588938       0.00760945
Pt       1.17289615       2.12501492       0.18210696        4       0.00000000      -0.11644738      -0.05950882       0.32751273
Pt       3.82629067       2.12296526       0.19262767        4       0.00000000       0.12747197      -0.03091270       0.46061058
Ni       6.31614369       2.18637654       0.07066941        4       1.00000000       0.05730564       0.08672519       0.00148907
Ni       8.73014985       2.16149675       0.07979621        4       1.00000000      -0.00073788       0.01611531       0.00151898
Pt       2.53045531       4.39139322       0.10624275        4       0.00000000       0.00936951       0.11854191      -0.04606795
Ni       5.06297896       4.37806357       0.18174306        4       1.00000000       0.10549415       0.02143111       0.31190280
Ni       7.52901870       4.37113823       0.07669657        4       1.00000000      -0.00832613       0.09452040       0.00760011
Ni       9.94194781       4.34935500       0.13451614        4       1.00000000      -0.09548317       0.00110350       0.15705346
Ni       3.82165019       6.56849744       0.09707854        4       1.00000000       0.05963661      -0.01851432       0.03841963
Ni       6.26666158       6.55818065       0.10444382        4       1.00000000       0.00366686       0.02475390       0.07652037
Ni       8.69974545       6.52681023       0.13021213        4       1.00000000      -0.11865315      -0.01850228       0.09694291
Pt      11.19930801       6.57588388       0.05812367        4       0.00000000      -0.05215630       0.04357958      -0.19858773
Ni       1.25867455       0.70306544       2.20804155        3       1.00000000      -0.01160758       0.10136361      -0.04676854
Ni       3.70133925       0.67974547       2.24065948        3       1.00000000      -0.02255169       0.00264965       0.06438546
Pt       6.20872084       0.71103366       2.18532798        3       0.00000000      -0.04470389       0.01838257      -0.13796842
Ni       8.83851496       0.72168761       2.18028840        3       1.00000000       0.04418782       0.01552362       0.00421957
Ni       2.49806063       2.90902234       2.26996666        3       1.00000000      -0.00984439       0.00236588      -0.07160497
Ni       4.98377066       2.92933425       2.25955601        3       1.00000000      -0.02458533      -0.01921647       0.12492542
Pt       7.58528647       2.91443451       2.20678681        3       0.00000000       0.08580228      -0.00976691       0.01292638
Ni      10.04897471       2.92183007       2.26774852        3       1.00000000       0.13289641       0.00724122       0.05884557
Ni       3.75201975       5.05464185       2.23790942        3       1.00000000      -0.02827551      -0.03844092       0.06483483
Pt       6.26163943       5.14646344       2.22193163        3       0.00000000       0.05560270       0.07883155       0.09671312
Ni       8.81354273       5.11791291       2.20729713        3       1.00000000       0.03593858       0.04333384       0.12957686
Ni      11.23075925       5.04270111       2.25724058        3       1.00000000       0.01816509       0.06001728      -0.03511658
Ni       5.03088464       7.29757027       2.17042177        3       1.00000000       0.02534050       0.03398356       0.03094865
Ni       7.54391247       7.28188669       2.18134338        3       1.00000000       0.05016401      -0.00331099       0.11717363
Ni       9.94923550       7.22449214       2.24416379        3       1.00000000       0.03491847      -0.03533883       0.07904145
Pt      12.57006668       7.21165451       2.26429731        3       0.00000000      -0.03171031      -0.07991617      -0.13754473
Ni      -0.05468649       1.47360381       4.21704032        2       1.00000000      -0.03223342       0.01653658      -0.03525846
Ni       2.52135660       1.46530314       4.19346588        2       1.00000000      -0.02026094       0.07618165       0.08218201
Ni       5.04238658       1.43524963       4.25927359        2       1.00000000      -0.05787357       0.00451692       0.08558473
Ni       7.53323605       1.44229643       4.33709357        2       1.00000000      -0.00386560      -0.06201310      -0.07604275
Ni       1.24415360       3.68130789       4.23261895        2       1.00000000      -0.02620513       0.00427873       0.03923601
Ni       3.74329308       3.65696442       4.23113413        2       1.00000000       0.01421708      -0.02657514       0.11323622
Ni       6.28644666       3.61231728       4.30999360        2       1.00000000       0.01301073      -0.01105326       0.11170230
Ni       8.79351463       3.64341956       4.33336288        2       1.00000000       0.07959464       0.03326511       0.02687026
Ni       2.49763352       5.80372868       4.31153852        2       1.00000000      -0.02522228      -0.02007550      -0.09081635
Ni       4.97047186       5.82381042       4.28541149        2       1.00000000      -0.11885256       0.03510366       0.04121131
Ni       7.56057788       5.78941922       4.33629887        2       1.00000000       0.09535613       0.00249843       0.06535581
Ni      10.01562160       5.80382349       4.30402419        2       1.00000000      -0.00876195       0.01038621      -0.10992438
Ni       3.72692390       8.00452840       4.34180656        2       1.00000000      -0.03388061       0.04914462      -0.01304017
Pt       6.26479513       7.98530784       4.30257119        2       0.00000000       0.01213188      -0.00746315       0.09671367
Ni       8.80831070       7.97281919       4.31899948        2       1.00000000       0.04277133      -0.04002192       0.01634753
Ni      11.26175065       7.97517650       4.35641199        2       1.00000000       0.00169567      -0.02604446      -0.09610198
Ni      -0.04674645      -0.01932650       6.36137822        1       1.00000000      -0.13625525      -0.01549020      -0.03160766
Ni       2.52964628      -0.04862516       6.36379471        1       1.00000000       0.06667461      -0.06051172      -0.01605704
Ni       5.05800917      -0.05009978       6.33185140        1       1.00000000       0.08473602      -0.11923126      -0.12511982
Ni       7.52014208       0.00420994       6.33831148        1       1.00000000      -0.07257993      -0.03962121      -0.08408791
Pt       1.18057046       2.19053335       6.26064424        1       0.00000000      -0.13908326      -0.03606713      -0.38716357
Pt       3.79886254       2.12667708       6.27149532        1       0.00000000       0.03926525      -0.11244221      -0.33378885
Ni       6.33041738       2.15249127       6.34072177        1       1.00000000      -0.00613636      -0.06202139      -0.15761616
Ni       8.71534567       2.17623275       6.34718920        1       1.00000000      -0.06130749      -0.03923688      -0.15858221
Ni       2.47684359       4.41830228       6.25540133        1       1.00000000      -0.04223632       0.00305794      -0.23489557
Pt       5.05482721       4.42186412       6.37149332        1       0.00000000       0.03950485       0.06409518       0.04943061
Ni       7.57334244       4.35875590       6.35358754        1       1.00000000       0.07001881      -0.01703087      -0.11517413
Ni       9.99369388       4.40221886       6.35021185        1       1.00000000       0.00598505       0.08250348      -0.08844639
Ni       3.73091440       6.58519774       6.34720784        1       1.00000000      -0.09683086       0.01248847      -0.12111558
Ni       6.29425869       6.56366002       6.39408036        1       1.00000000       0.06588490      -0.01076714      -0.04169480
Ni       8.77691698       6.53089378       6.36546656        1       1.00000000       0.06891928      -0.02322143      -0.06174049
Ni      11.27029413       6.53660999       6.26020388        1       1.00000000      -0.00098067      -0.06427002      -0.27928056
