64
Lattice="10.341031563347096 -0.020087791991416214 0.06395424589638243 5.153119243503046 8.858218105595146 0.025778261451259103 0.0 0.0 21.58415208170549" Properties=species:S:1:pos:R:3:tags:I:1:initial_magmoms:R:1:forces:R:3 unique_id=9e35de929c2446b5886b2a845c07ec93 energy=-376.43949894948594 stress="0.006061719967860706 -2.42489483167675e-05 0.0004206962864544339 -2.42489483167675e-05 0.005597316465712327 0.00017272395546667223 0.0004206962864544339 0.00017272395546667223 -0.0019920254885418508" pbc="T T T"
Ni       0.01461990       0.00404144       0.11403538        1       1.00000000       0.11791379       0.05790796      -0.08361108
Ni       2.59110174       0.00491945       0.15326337        2       1.00000000      -0.02352957       0.05272195       0.06232912
Ni       5.17011077      -0.03037488       0.12194199        1       1.00000000      -0.04702148       0.11066024      -0.38812879
Ni       7.75842795      -0.07096945       0.16870650        2       1.00000000      -0.06255603      -0.07320039      -0.15861872
Ni       1.29888029       2.22197880       0.12416399        1       1.00000000       0.00917607      -0.01335525       0.14569691
Pt       3.79413954       2.17215079       0.14217730        1       0.00000000       0.02017088       0.02448104      -0.30172901
Pt       6.46252540       2.12485909       0.08037980        1       0.00000000       0.07073883      -0.05065210      -0.09935594
Pt       9.14086383       2.20201217       0.11126972        1       0.00000000       0.04232733       0.07227110      -0.54897773
Ni       2.53854192       4.45581249       0.00862130        0       1.00000000      -0.03953202      -0.03585080       0.18891007
Pt       5.11623626       4.45756029       0.00000000        0       0.00000000       0.11922563      -0.05300336      -0.35607457
Pt       7.80267189       4.46496259       0.01706595        0       0.00000000      -0.07657541      -0.00283084      -0.28411664
Ni      10.39050108       4.44720417       0.05986792        1       1.00000000       0.09605961       0.00983014       0.20867522
Ni       3.81708703       6.68556585       0.04197145        0       1.00000000      -0.02678917       0.10658255       0.29411538
Pt       6.45886115       6.74372350       0.16409188        2       0.00000000       0.01157999      -0.01245241      -0.53172367
Ni       9.07971527       6.67037108       0.05551611        1       1.00000000      -0.02557474       0.07204543       0.12645446
Ni      11.64302095       6.63305047       0.06331311        1       1.00000000       0.10524858       0.04274543       0.26468910
Ni       1.33649073       0.74370382       2.17636289        4       1.00000000       0.07424054       0.04814281       0.28395430
Ni       3.85657329       0.75135535       2.21161963        4       1.00000000      -0.09443701       0.15085755       0.30418148
Ni       6.46812630       0.75104534       2.21820990        4       1.00000000      -0.03282522       0.16743131       0.27265057
Pt       9.07463452       0.72205038       2.23903294        4       0.00000000       0.03724997       0.18896932       0.01377898
Ni       2.56606769       2.90119806       2.22420356        4       1.00000000      -0.04411466      -0.13024848       0.35648362
Ni       5.17737869       2.90810072       2.23316104        4       1.00000000      -0.04746422      -0.08987115       0.21372366
Ni       7.74276277       2.92078645       2.23661312        4       1.00000000      -0.01655131      -0.04337600       0.10880688
Ni      10.38830950       2.90848795       2.26069634        5       1.00000000       0.07762710      -0.09946466       0.31688659
Pt       3.87857879       5.16121479       2.19538817        4       0.00000000       0.02476381      -0.12335960      -0.12560364
Ni       6.47084243       5.15510086       2.20999197        4       1.00000000       0.01345208      -0.10175559       0.07480075
Pt       9.01323963       5.12836424       2.28153943        5       0.00000000      -0.11109563      -0.12029678       0.00321857
Pt      11.64026532       5.09910136       2.22828077        4       0.00000000      -0.05017105      -0.09198971       0.09276395
Ni       5.19078131       7.40410454       2.19400563        4       1.00000000       0.07945298       0.04091278       0.20309774
Ni       7.72491394       7.41514368       2.22265682        4       1.00000000      -0.11428827       0.08777483       0.24897512
Pt      10.33731837       7.41345891       2.13225970        3       0.00000000       0.00334325       0.00486211      -0.09365021
Ni      12.93415327       7.36534599       2.18989927        4       1.00000000       0.03118136      -0.02896406       0.01024719
Ni       0.06608913       1.51797269       4.27193551        6       1.00000000       0.17484028       0.08099231      -0.24226508
Ni       2.58468374       1.50337275       4.26849710        6       1.00000000      -0.07884465       0.04685891      -0.28210008
Ni       5.18628699       1.48010173       4.29467734        6       1.00000000      -0.11527300      -0.07776294      -0.36334982
Ni       7.77389904       1.47937464       4.33363273        6       1.00000000       0.01228646      -0.09704132      -0.27013434
Ni       1.30980797       3.69984972       4.31094519        6       1.00000000      -0.00974700      -0.06119547      -0.13529154
Ni       3.84931551       3.67464443       4.30414257        6       1.00000000      -0.18471309      -0.15176928      -0.25465022
Pt       6.51374324       3.62863159       4.32787225        6       0.00000000       0.01495642      -0.05089854      -0.21594617
Ni       9.10373436       3.69631901       4.34800918        6       1.00000000       0.18670112      -0.09548339      -0.16577613
Ni       2.56677839       5.85083934       4.37712826        7       1.00000000      -0.09261501      -0.15341461       0.01772793
Pt       5.18335908       5.87075249       4.31858250        6       0.00000000       0.09932490      -0.04036550       0.01793830
Ni       7.80113849       5.87081940       4.35633754        7       1.00000000      -0.02460849      -0.03038723      -0.11575389
Ni      10.35471680       5.83433758       4.43374356        7       1.00000000       0.00237140      -0.05401932       0.04281784
Pt       3.91342351       8.11533228       4.30013230        6       0.00000000       0.01363751       0.05150970       0.06503499
Ni       6.48092431       8.14539412       4.29221116        6       1.00000000      -0.04673745       0.15286131      -0.26569095
Pt       8.99413339       8.09904300       4.30817769        6       0.00000000      -0.07831337       0.07395236       0.08076732
Pt      11.64345132       8.07918986       4.32724240        6       0.00000000      -0.06266436      -0.06861115      -0.01106275
Pt       0.02843156      -0.03138304       6.49998503        9       0.00000000       0.11812614       0.07244725       0.33031698
Pt       2.62310157      -0.02614426       6.52147602        9       0.00000000      -0.06032505       0.11582368       0.25427810
Pt       5.20871789      -0.06502827       6.55110696       10       0.00000000       0.01651519       0.10620795       0.31772970
Pt       7.77059608      -0.07070597       6.58415208       10       0.00000000      -0.10236506       0.07736347       0.33051427
Pt       1.32084446       2.32338021       6.44807112        8       0.00000000      -0.02239307       0.14306121      -0.06508813
Pt       3.95291644       2.29241969       6.39003745        8       0.00000000      -0.03460757      -0.01126651       0.30778730
Ni       6.49365328       2.22293449       6.43196319        8       1.00000000      -0.01742594      -0.08900383       0.13025361
Pt       9.03122385       2.28357822       6.40080520        8       0.00000000       0.04933829      -0.01300262       0.47921858
Ni       2.60241440       4.48861445       6.45416317        9       1.00000000       0.03723318       0.03693942      -0.37945137
Ni       5.18561561       4.41539349       6.41268323        8       1.00000000      -0.01103545      -0.00857834       0.21141722
Ni       7.80013456       4.42055207       6.41006371        8       1.00000000       0.08072762       0.03377700       0.08967572
Ni      10.37027106       4.47637294       6.49714538        9       1.00000000      -0.03475174       0.01364950      -0.39278623
Ni       3.85973163       6.56958321       6.49268803        9       1.00000000      -0.03663498      -0.10354047      -0.22400309
Pt       6.51792077       6.53516783       6.45795988        9       0.00000000       0.08692265       0.04069761       0.54378252
Ni       9.10455696       6.55138183       6.50569785        9       1.00000000       0.01275946      -0.09899283      -0.29682655
Ni      11.65198159       6.54021394       6.53206311        9       1.00000000      -0.01391136      -0.00833369      -0.36193369
