64
Lattice="10.156607563531265 0.0027993402092621497 -0.013083341064355679 5.080728081500747 8.719304743576197 -0.07171973211617587 0.0 0.0 21.465139744694017" Properties=species:S:1:pos:R:3:tags:I:1:initial_magmoms:R:1:forces:R:3 unique_id=654fd95840be4942826222b4bd905703 energy=-368.04498440700087 stress="0.002285273723304381 -7.363486610669487e-05 5.029323916499009e-07 -7.363486610669487e-05 0.001623108559532644 -0.0003167632488763818 5.029323916499009e-07 -0.0003167632488763818 -0.004917617745791332" pbc="T T T"
Ni       0.04174738      -0.05960315       0.17387117        2       1.00000000       0.08423545      -0.03641421      -0.51496819
Ni       2.48943996      -0.04051493       0.16651514        2       1.00000000       0.05211738      -0.03224559      -0.16575551
Pt       5.09616242      -0.03681793       0.12369855        1       0.00000000      -0.12139561       0.17031299      -1.10661281
Ni       7.62742698      -0.05767247       0.14019506        1       1.00000000      -0.06709751      -0.09011517      -0.55774341
Ni       1.26153755       2.19043897       0.08630998        1       1.00000000      -0.04274839       0.01773796       0.23020347
Pt       3.76523839       2.24545087       0.15046834        2       0.00000000       0.02341841      -0.05143695      -0.73999205
Ni       6.35008735       2.23019551       0.07044964        1       1.00000000      -0.05606382      -0.00369403       0.10170651
Pt       8.88657295       2.23975025       0.08659051        1       0.00000000       0.02249760       0.18222275      -1.03457253
Ni       2.51380766       4.40041993       0.04336303        0       1.00000000       0.04860960       0.00275494       0.37306243
Ni       5.09988187       4.40696835       0.04473790        0       1.00000000      -0.08721035       0.03348507       0.28322620
Ni       7.57996625       4.40140812       0.05230754        1       1.00000000       0.05844669       0.01993107       0.22548977
Ni      10.18852303       4.39592082       0.04180300        0       1.00000000      -0.04975771       0.00816598       0.32139854
Ni       3.81937888       6.50850264       0.03050997        0       1.00000000       0.03577602      -0.00160599       0.28962576
Ni       6.33765843       6.52012908       0.03192930        0       1.00000000       0.00819832       0.02928730       0.30157182
Ni       8.84330773       6.47695944       0.09076721        1       1.00000000      -0.10719858      -0.01875630      -0.18386971
Ni      11.46279527       6.47860550       0.00000000        0       1.00000000       0.01052856       0.04301858       0.21530487
Ni       1.31450508       0.70440581       2.12924178        4       1.00000000      -0.00747741       0.04936451       0.11023884
Ni       3.73270251       0.70058780       2.15724695        5       1.00000000      -0.13713994      -0.12178073       0.18733021
Ni       6.36375749       0.74326398       2.13558431        4       1.00000000       0.01695500       0.06386084       0.08794616
Pt       8.87423052       0.68689152       2.12699287        4       0.00000000       0.05793624      -0.14918913       0.16155833
Ni       2.50419592       2.92582974       2.19331782        5       1.00000000      -0.00111108       0.01713079       0.13285853
Ni       5.08886463       2.95656183       2.11562883        4       1.00000000       0.04102862       0.10251138       0.05166774
Ni       7.59214581       2.94472061       2.13523807        4       1.00000000      -0.02759716       0.02951847       0.10735156
Ni      10.20120951       2.96425398       2.12813588        4       1.00000000       0.06057241       0.05922983       0.11138707
Ni       3.80710483       5.06465688       2.10339489        4       1.00000000      -0.00242521      -0.04821832       0.05046755
Ni       6.34579093       5.09932129       2.07466022        4       1.00000000       0.01327173       0.01615199       0.06805264
Ni       8.85618249       5.02903520       2.10555980        4       1.00000000      -0.03147323      -0.07348916       0.06975377
Ni      11.45593162       5.03025932       2.10579403        4       1.00000000       0.03335616      -0.04321602       0.13657947
Ni       5.11890871       7.18217159       2.06196149        4       1.00000000      -0.02038015      -0.07002533       0.09510301
Ni       7.57267935       7.22865645       2.09372667        4       1.00000000      -0.02699832      -0.05617923       0.09706195
Pt      10.14935221       7.17491611       2.15443859        5       0.00000000       0.01579888      -0.16062274       0.12585699
Ni      12.69619978       7.16585554       2.04119580        3       1.00000000       0.02598319      -0.12791430       0.07872838
Pt       0.08924971       1.48029590       4.21680885        7       0.00000000       0.13328913      -0.09371878      -0.00086552
Ni       2.54639747       1.44030750       4.19144166        7       1.00000000       0.06433752      -0.03570587      -0.20112680
Pt       5.06040541       1.41571890       4.13092671        6       0.00000000       0.07559179      -0.01415916      -0.19039985
Ni       7.60034200       1.42888851       4.22713461        7       1.00000000      -0.01620811      -0.06862664      -0.21235715
Ni       1.29835942       3.66102835       4.23966544        7       1.00000000       0.06910619      -0.00491527      -0.09785159
Ni       3.75862678       3.68295231       4.18202644        7       1.00000000       0.01502460       0.08826301      -0.17137421
Pt       6.36990351       3.67525543       4.22415494        7       0.00000000       0.03943913      -0.00805582       0.01557095
Ni       8.91452765       3.69626153       4.17613192        7       1.00000000       0.04657399       0.10110720      -0.16738540
Ni       2.50773032       5.72408003       4.21703044        7       1.00000000      -0.02816453      -0.00774062      -0.17076418
Ni       5.07878447       5.76504015       4.21252139        7       1.00000000       0.05112483      -0.00390614      -0.16537930
Ni       7.62022780       5.81619964       4.16363937        7       1.00000000       0.04853804       0.06455072      -0.16078374
Ni      10.18069491       5.73769056       4.21696681        7       1.00000000       0.03113572       0.02498795      -0.06776731
Pt       3.80161044       7.84366785       4.16358773        7       0.00000000       0.06796895       0.03643217      -0.01828323
Ni       6.38335675       7.90393969       4.13482449        6       1.00000000       0.02379025      -0.03558764      -0.15852754
Ni       8.83123004       7.92120639       4.15576311        7       1.00000000      -0.11347922       0.02158492      -0.21672841
Ni      11.43167317       7.89024118       4.16655572        7       1.00000000       0.03213797      -0.11189270      -0.14400314
Pt       0.00406470      -0.10332759       6.46513974       10       0.00000000      -0.19435456       0.09466687       0.37955131
Pt       2.51212692      -0.04071442       6.37488376        9       0.00000000       0.26156385       0.05302183       0.13852800
Pt       5.08332035      -0.06278499       6.28321603        8       0.00000000      -0.23177203      -0.11876344       1.08063549
Pt       7.59808726      -0.08496467       6.41833986        9       0.00000000       0.09640864       0.16905563       0.42139635
Ni       1.26820865       2.21728301       6.36960468        9       1.00000000       0.03813075       0.05672931       0.01010660
Pt       3.78087125       2.29078486       6.29111895        8       0.00000000      -0.14521218      -0.02849211       0.68933230
Ni       6.33003112       2.19972729       6.36205461        9       1.00000000       0.00935689       0.00121804       0.02279064
Pt       8.86188005       2.26991435       6.26447460        8       0.00000000      -0.15351490      -0.11752342       1.09045575
Ni       2.50528773       4.38626707       6.31880736        8       1.00000000       0.07239909      -0.05042761      -0.27396126
Ni       5.07993768       4.38978318       6.34893729        8       1.00000000      -0.08410894       0.01208696      -0.19064721
Ni       7.54488731       4.33912222       6.36104821        9       1.00000000      -0.04640873      -0.02173514      -0.04416117
Ni      10.23415427       4.32706845       6.31406728        8       1.00000000       0.04167262      -0.02526473      -0.23156052
Ni       3.79868418       6.39878348       6.33444472        8       1.00000000       0.00624519      -0.00653788      -0.20109629
Ni       6.31507035       6.42925250       6.30749519        8       1.00000000      -0.02667652       0.06081415      -0.26919321
Pt       8.87922677       6.36748521       6.32550104        8       0.00000000       0.00883990       0.12736982      -0.01294449
Ni      11.45633580       6.42492328       6.29256943        8       1.00000000      -0.01543107       0.08138316      -0.19122318
