64
Lattice="10.733778156681995 -0.007399918718271935 0.012569107245859022 5.360480560745039 9.293491749398715 0.013930775597168314 0.0 0.0 21.912982249670407" Properties=species:S:1:pos:R:3:tags:I:1:initial_magmoms:R:1:forces:R:3 unique_id=5c9c54b22cfe42389b446f5772a5b380 stress="0.004517222434719354 -3.61869192343248e-05 -3.182604096143468e-05 -3.61869192343248e-05 0.004410293392143466 -2.386185969406057e-05 -3.182604096143468e-05 -2.386185969406057e-05 -0.0009795600731077759" energy=-400.46330896076745 pbc="T T T"
Ni      -0.01720076      -0.01271544       0.00610617        0       1.00000000      -0.05759756      -0.07602276       0.45325186
Pt       2.66385337       0.00265552       0.02329672        0       0.00000000      -0.22050769       0.03853916      -0.29945670
Ni       5.38371037      -0.00554726       0.00000000        0       1.00000000       0.05430866       0.01134920       0.30996720
Ni       8.05775578      -0.02474918       0.01382080        0       1.00000000       0.09006162      -0.15595855       0.44110083
Pt       1.34293795       2.30501185       0.02044494        0       0.00000000       0.00947545      -0.20535904      -0.38757490
Pt       4.03848164       2.35723780       0.00930529        0       0.00000000       0.01335124       0.09514302      -0.45814516
Pt       6.69320075       2.28356249       0.00965436        0       0.00000000       0.00924776      -0.09526975      -0.47325110
Pt       9.38614224       2.25728495       0.01427439        0       0.00000000      -0.09353295      -0.09050632      -0.42201117
Ni       2.70108832       4.66308208       0.00834820        0       1.00000000       0.09815821       0.08233288       0.41365166
Ni       5.34704062       4.65587303       0.01042255        0       1.00000000      -0.02481584       0.05481804       0.41042335
Pt       7.99959494       4.64994846       0.02607654        0       0.00000000      -0.22174086       0.04203455      -0.28493890
Pt      10.76644641       4.64414583       0.01935803        0       0.00000000       0.05955024       0.06080757      -0.34289225
Ni       4.01682313       6.97260097       0.02310963        0       1.00000000      -0.08586654       0.08747412       0.50830814
Pt       6.63021438       6.95723813       0.03243677        0       0.00000000      -0.20160524      -0.17288319      -0.17297365
Pt       9.40208287       6.99634079       0.01762322        0       0.00000000       0.03454302       0.06509352      -0.29486248
Pt      12.15587253       7.01247961       0.04134821        0       0.00000000       0.44455816       0.22857170      -0.25144370
Ni       1.33912318       0.76977721       2.22588636        1       1.00000000      -0.04014185      -0.08661867       0.40260484
Pt       4.01250651       0.76771944       2.22891121        1       0.00000000       0.09779278      -0.02686134       0.36497490
Pt       6.73364006       0.73029462       2.19458402        1       0.00000000       0.07508665      -0.12388883       0.13738205
Pt       9.40697225       0.71523935       2.19782513        1       0.00000000      -0.00154192      -0.18315176       0.10960182
Pt       2.67911274       3.09567072       2.22760331        1       0.00000000       0.06007447       0.13914189       0.36343691
Pt       5.38079161       3.14741999       2.22892084        1       0.00000000       0.04159723       0.22174859       0.32704927
Pt       8.03716262       3.10733411       2.26301787        2       0.00000000       0.05540213      -0.12636166       0.44161443
Pt      10.74314121       3.06279791       2.26798830        2       0.00000000      -0.05033425      -0.02742045       0.43890844
Pt       4.04550170       5.45844574       2.15811523        1       0.00000000       0.06684313       0.08921182      -0.15375399
Ni       6.70066911       5.42913709       2.25000091        2       1.00000000      -0.08815276       0.07006077       0.40507515
Pt       9.34888232       5.43345554       2.29093983        2       0.00000000      -0.07037315       0.07030990       0.49617960
Pt      12.10888654       5.44218567       2.24043512        1       0.00000000       0.11256143       0.00972606       0.34606042
Pt       5.34057748       7.75027404       2.20343434        1       0.00000000      -0.12640464       0.06307845       0.12530863
Pt       8.00453439       7.72758175       2.28799496        2       0.00000000      -0.14667305      -0.08833648       0.45848658
Pt      10.75922170       7.75209427       2.23949957        1       0.00000000      -0.05151210       0.01525901       0.28792183
Ni      13.42509659       7.74240112       2.22391538        1       1.00000000       0.13626055       0.01750227       0.17176848
Pt       0.01292215       1.53570557       4.50746356        3       0.00000000      -0.03805971      -0.13419417      -0.53893134
Pt       2.67817199       1.53891813       4.51444502        3       0.00000000       0.01311828      -0.02187431      -0.54999719
Pt       5.37016795       1.54301584       4.53094421        3       0.00000000       0.01047406      -0.01884803      -0.55626323
Pt       8.05580036       1.54694596       4.54100642        3       0.00000000       0.01138482      -0.03799399      -0.48142872
Pt       1.34778565       3.88478266       4.53104982        3       0.00000000       0.05501573       0.07586353      -0.45154831
Pt       4.03318423       3.88591443       4.52894254        3       0.00000000       0.03292406       0.10865737      -0.46342190
Pt       6.72144004       3.92023666       4.51767609        3       0.00000000      -0.05416992       0.08466569      -0.49663716
Pt       9.37599483       3.89840949       4.54606861        3       0.00000000      -0.00976125      -0.03209184      -0.44336034
Pt       2.69454156       6.20887594       4.51607298        3       0.00000000       0.13519567      -0.00143470      -0.49528565
Pt       5.40895245       6.19441121       4.51167699        3       0.00000000      -0.01137602       0.04038364      -0.56313236
Ni       8.04500408       6.19395652       4.56078021        4       1.00000000      -0.04736567       0.03976436      -0.50666693
Pt      10.70140285       6.19573820       4.54911377        3       0.00000000       0.02306785       0.03329055      -0.50224043
Pt       4.02468949       8.51104700       4.51619916        3       0.00000000       0.05236067      -0.08002591      -0.45676998
Pt       6.71517348       8.50214560       4.52063864        3       0.00000000      -0.10384441      -0.03587087      -0.48019434
Pt       9.37761126       8.49112981       4.53615212        3       0.00000000       0.01456429      -0.03084347      -0.46239859
Pt      12.07965675       8.51469313       4.52952573        3       0.00000000       0.00600752       0.00377060      -0.45445367
Pt       0.00333608       0.00047926       6.88718255        6       0.00000000       0.07680684       0.00874479      -0.00243128
Pt       2.68800151       0.00127859       6.81423001        5       0.00000000      -0.02329666       0.03544972       0.36214713
Pt       5.37569864      -0.00171310       6.89013239        6       0.00000000      -0.04126388      -0.00197265       0.06450828
Pt       8.06041405      -0.00521811       6.90372284        6       0.00000000      -0.01818755      -0.01702297       0.00303514
Pt       1.34575611       2.32748638       6.81789083        5       0.00000000       0.01561228      -0.02317889       0.41648893
Pt       4.03280512       2.33144216       6.82451791        5       0.00000000      -0.03417889      -0.02030936       0.45667947
Pt       6.71451791       2.32578366       6.82256488        5       0.00000000      -0.01913787       0.04666762       0.39671223
Pt       9.39626129       2.32036111       6.82318211        5       0.00000000       0.02480106       0.04374382       0.45097859
Pt       2.69162550       4.65507289       6.90117179        6       0.00000000      -0.02900405      -0.02385407       0.10450789
Pt       5.36798265       4.65582585       6.89518539        6       0.00000000       0.02299519      -0.02576343       0.00864173
Pt       8.04769739       4.66025267       6.80027259        5       0.00000000      -0.00424767       0.12915745       0.34236800
Pt      10.74005912       4.64674600       6.82148711        5       0.00000000       0.00878126      -0.02625779       0.52188510
Pt       4.02865772       6.97630810       6.91298225        6       0.00000000      -0.00326468       0.00201289      -0.06729232
Pt       6.71199432       6.96544047       6.81099983        5       0.00000000       0.11805123      -0.04163038       0.26880946
Pt       9.38614079       6.96900659       6.80658570        5       0.00000000      -0.15415683      -0.06574338       0.42089460
Pt      12.08312276       6.97242831       6.84061383        5       0.00000000      -0.00791809      -0.01682554       0.28302480
