64
Lattice="10.752378631485897 0.0037150775070739785 -0.00946499191955227 5.3794066672411045 9.312289670579258 0.0019628478663379885 -0.0077281335408230485 0.0063124306957610555 9.34877168392401" Properties=species:S:1:pos:R:3:tags:I:1:initial_magmoms:R:1:forces:R:3 unique_id=5f2034ff4a6e4134a6ed824475b70ef2 stress="0.004254604299697824 -1.5510987469701852e-05 3.3362848426869814e-06 -1.5510987469701852e-05 0.004218393948785301 2.83311839679585e-06 3.3362848426869814e-06 2.83311839679585e-06 0.003137950873793073" energy=-428.08552325298115 pbc="T T T"
Pt      -0.00151931       0.00244836       0.08498146        4       0.00000000      -0.00988558       0.02137741       0.08082245
Pt       2.68463311       0.00677265       0.08176166        4       0.00000000      -0.01478178       0.01477964       0.04376967
Pt       5.37679549      -0.00117472       0.08237616        4       0.00000000       0.00422576       0.00639032       0.08220246
Pt       8.06651614       0.00170799       0.07803876        4       0.00000000       0.00162837      -0.00697702       0.08377812
Pt       1.34292553       2.33089836       0.01782449        4       0.00000000      -0.01138723       0.01299761      -0.05269226
Pt       4.02638604       2.33058611       0.08549441        4       0.00000000      -0.02881176       0.00508782       0.02810343
Pt       6.72352986       2.33290999       0.08773169        4       0.00000000       0.00287684       0.00668016       0.05992132
Pt       9.41161185       2.33091608       0.00273768        4       0.00000000       0.00929992       0.00397426      -0.06069188
Pt       2.69152907       4.66278356       0.10160431        4       0.00000000      -0.03600563      -0.00078272       0.03125663
Pt       5.36664291       4.66313759       0.10853934        4       0.00000000      -0.02508728       0.01084057       0.05019825
Pt       8.06408266       4.65802034       0.08515981        4       0.00000000       0.00723785      -0.00687310       0.07183089
Pt      10.76090060       4.65487909       0.07171051        4       0.00000000       0.01821434      -0.00063946       0.06691188
Pt       4.02736211       6.97287762       0.10967538        4       0.00000000      -0.03779041      -0.00707864       0.02898204
Pt       6.72205180       6.98373753       0.09256355        4       0.00000000       0.00514889       0.00136801       0.02383633
Pt       9.41255564       6.98543607       0.08325180        4       0.00000000       0.01196198      -0.01366838       0.03794347
Pt      12.10010026       6.98558940       0.01202073        4       0.00000000      -0.01044916      -0.01185460      -0.05320285
Pt       1.35053441       0.79205491       2.40313048        3       0.00000000       0.00110212       0.04803073       0.16445179
Pt       4.02112219       0.79211224       2.39939466        3       0.00000000      -0.02521880       0.03037219       0.16227065
Pt       6.72764185       0.78338954       2.39740948        3       0.00000000       0.03360588      -0.00717538       0.20099066
Pt       9.40062699       0.78606142       2.39717143        3       0.00000000       0.01435999       0.04379419       0.19135009
Pt       2.68459017       3.12883457       2.42371133        3       0.00000000      -0.08357676      -0.04690399       0.13119699
Pt       5.35001293       3.14309634       2.38052594        3       0.00000000      -0.05922402       0.06432189       0.11100294
Pt       8.06886764       3.09653543       2.39727835        3       0.00000000       0.03411902      -0.05405668       0.12568011
Pt      10.76789927       3.11825210       2.40059913        3       0.00000000       0.03694852       0.04833796       0.13995876
Ni       4.02389533       5.43336570       2.36089239        3       1.00000000      -0.03530037      -0.01813290       0.09878752
Pt       6.69821295       5.43786259       2.40003628        3       0.00000000       0.02957259      -0.00094041       0.13818845
Pt       9.40295940       5.43670668       2.39836317        3       0.00000000       0.01045794      -0.00668133       0.20238395
Pt      12.14440580       5.43186119       2.42718440        3       0.00000000       0.08754811      -0.04948787       0.25224466
Pt       5.35664852       7.73679976       2.37344749        3       0.00000000      -0.02429103       0.02312932       0.04555947
Pt       8.06006759       7.74828535       2.39642628        3       0.00000000       0.00327667      -0.04252596       0.12142028
Pt      10.76868520       7.75520241       2.38361032        3       0.00000000       0.05881037      -0.03803394       0.10589068
Pt      13.45359441       7.71367863       2.39935691        3       0.00000000       0.01402923      -0.10309145       0.16228248
Pt       0.03254495       1.61039581       4.71779637        2       0.00000000       0.13192820       0.11422903       0.05902205
Ni       2.66817133       1.57621532       4.67607872        2       1.00000000      -0.05102016       0.09100553      -0.01041302
Pt       5.36925924       1.56153444       4.64797134        2       0.00000000      -0.02155132       0.02740000      -0.02978382
Ni       8.07104769       1.55986671       4.67659626        2       1.00000000       0.05806374       0.00144634       0.00347394
Ni       1.35388414       3.87596814       4.68291957        2       1.00000000       0.03038638      -0.04899507       0.01008818
Pt       3.94786025       3.90437895       4.62393901        2       0.00000000      -0.10883837       0.09808756      -0.08694958
Pt       6.74051462       3.88749105       4.64417588        2       0.00000000      -0.02075261       0.01709280      -0.02995621
Pt       9.41597954       3.86852737       4.67128331        2       0.00000000       0.00124547      -0.01244583      -0.04062099
Ni       2.67850557       6.19562326       4.66594386        2       1.00000000      -0.00499640      -0.04216730      -0.04158809
Pt       5.34603749       6.19934637       4.62215270        2       0.00000000      -0.15631906      -0.02526927      -0.09389292
Ni       8.06755925       6.21023069       4.66547455        2       1.00000000       0.02928756      -0.02059574      -0.02749865
Pt      10.80066682       6.18055763       4.67283774        2       0.00000000       0.13667440      -0.09918648       0.01918481
Pt       4.01392346       8.55024839       4.65294550        2       0.00000000       0.04853940       0.09983273      -0.03606035
Pt       6.73178481       8.54970884       4.64610771        2       0.00000000      -0.04573307       0.01209272      -0.06177232
Pt       9.38874615       8.53605879       4.64791867        2       0.00000000       0.01832313      -0.04567867      -0.04331931
Pt      12.11937893       8.51429978       4.67224614        2       0.00000000       0.02605347      -0.07882497      -0.00296701
Pt      -0.01109499       0.06873233       6.89585306        1       0.00000000      -0.01221873       0.07303393      -0.03846822
Pt       2.66474940       0.04704510       6.87795065        1       0.00000000      -0.04039938       0.06776154      -0.13381748
Pt       5.38773657      -0.01951133       6.89264011        1       0.00000000       0.01226653      -0.03530446      -0.08463730
Pt       8.06693371       0.02300452       6.87648321        1       0.00000000       0.05331588       0.06720325      -0.08059826
Ni       1.32935669       2.33902301       6.88806548        1       1.00000000       0.00392021       0.05190114      -0.35275464
Pt       3.97937105       2.33326797       6.87213952        1       0.00000000      -0.07125447       0.03192641      -0.14742873
Pt       6.76078216       2.32567824       6.87452318        1       0.00000000       0.06232734       0.00315579      -0.11916351
Ni       9.41759285       2.33680162       6.88474858        1       1.00000000       0.03941275       0.01249459      -0.35008884
Pt       2.63600301       4.66634189       6.85844539        1       0.00000000      -0.06888401       0.05009194      -0.12523055
Pt       5.36026771       4.65303506       6.89539523        1       0.00000000      -0.05945932      -0.03761390      -0.11689151
Pt       8.08993071       4.64502808       6.87983704        1       0.00000000       0.04626607       0.00791157      -0.08159290
Pt      10.77634721       4.60988657       6.86888921        1       0.00000000       0.01890613      -0.21463033      -0.06875609
Pt       3.98034924       6.98644109       6.88190754        1       0.00000000      -0.09152316       0.00178814      -0.13398736
Pt       6.72556874       6.99281295       6.87905172        1       0.00000000      -0.01770678       0.01345577      -0.16035592
Pt       9.43342249       6.97560087       6.87102102        1       0.00000000       0.05980046      -0.06989464      -0.13737008
Ni      12.09594945       6.98550658       6.89097229        1       1.00000000       0.01132513      -0.03788235      -0.33243477
