64
Lattice="10.12940843821112 0.030461385071412557 -0.03356323105455098 5.091084552411864 8.797202271648766 -0.025188924024020745 0.0 0.0 21.42374661960158" Properties=species:S:1:pos:R:3:tags:I:1:initial_magmoms:R:1:forces:R:3 unique_id=28044f38d2254d7a93877bf53d8caaa4 energy=-370.39812110801034 stress="0.005077175553221963 0.0002991125698403881 0.00011810047498856939 0.0002991125698403881 0.004776958648898693 -0.00020581332945371347 0.00011810047498856939 -0.00020581332945371347 -0.0016527573615544664" pbc="T T T"
Ni       0.04691305      -0.01305558       0.09652065        1       1.00000000       0.10730157       0.00015617       0.22814134
Ni       2.50501243       0.04935053       0.09204134        1       1.00000000       0.02617608       0.02958619       0.26703533
Ni       5.06404792       0.04671981       0.12572458        1       1.00000000      -0.09729117       0.03426784      -0.18145578
Ni       7.56193496       0.00515538       0.04553895        0       1.00000000      -0.11299214      -0.00146908       0.11385849
Ni       1.28852669       2.12962097       0.14161879        1       1.00000000      -0.07651292      -0.01767790      -0.41001265
Ni       3.83552874       2.15601900       0.06222094        1       1.00000000       0.10004026      -0.12720635       0.10833549
Ni       6.28303278       2.19521328       0.12265075        1       1.00000000      -0.02651436       0.01421158      -0.21950905
Pt       8.86202921       2.11432466       0.04921229        0       0.00000000      -0.09568008       0.02538767      -0.15947307
Pt       2.60597220       4.38419895       0.00000000        0       0.00000000      -0.01128817       0.03823444      -0.34844854
Ni       5.07164465       4.38004003       0.07708369        1       1.00000000      -0.02914611       0.00103338       0.18220175
Pt       7.51173128       4.41537762       0.15462543        2       0.00000000       0.11159359       0.02777021      -0.64907582
Pt      10.15916178       4.42336930       0.04770521        0       0.00000000      -0.09691754      -0.02785485      -0.17792614
Pt       3.85040753       6.66277582       0.06141385        1       0.00000000       0.06842037      -0.02136567      -0.00980932
Ni       6.33469165       6.64811220       0.14353503        1       1.00000000       0.07162714       0.09637487       0.03435864
Pt       8.87166787       6.72253081       0.05123249        1       0.00000000      -0.08848768       0.02976841      -0.02924167
Ni      11.42131460       6.67377458       0.04081718        0       1.00000000       0.02773506       0.05611161       0.24339126
Ni       1.23427281       0.67782587       2.14105806        3       1.00000000      -0.08012783      -0.14538641       0.11927378
Ni       3.78440715       0.69303941       2.13489965        3       1.00000000      -0.01619434      -0.17604262       0.09921605
Pt       6.32609487       0.73539103       2.17146961        4       0.00000000       0.06533658      -0.08037216       0.08108540
Ni       8.89075353       0.73152222       2.16037448        4       1.00000000       0.05942627      -0.04907344       0.11706893
Pt       2.52482081       2.91020900       2.15199129        4       0.00000000      -0.01751244       0.09623469      -0.17131913
Ni       5.09272450       2.96849273       2.13510945        3       1.00000000       0.04655986       0.10174380       0.11213433
Ni       7.58164608       2.93972424       2.17914674        4       1.00000000      -0.05426863      -0.03463320       0.14590067
Ni      10.12199858       2.93236883       2.15280410        4       1.00000000      -0.00940043      -0.05693089       0.06819566
Ni       3.84117995       5.16866498       2.17787410        4       1.00000000       0.01417424       0.12363797       0.17845093
Ni       6.30548879       5.16847075       2.20890006        4       1.00000000      -0.01228756       0.05371662       0.20372820
Ni       8.87348173       5.18815373       2.18398006        4       1.00000000       0.00669352       0.22710365       0.14740610
Ni      11.39890092       5.20751704       2.18264109        4       1.00000000      -0.01890638       0.05249885       0.15988364
Ni       5.11244972       7.33743930       2.16561058        4       1.00000000       0.05623446      -0.01150496       0.17208142
Ni       7.59250129       7.34983000       2.17770071        4       1.00000000       0.01607390      -0.01943640       0.21694284
Ni      10.14730881       7.32981271       2.17533770        4       1.00000000      -0.00351291      -0.11811628       0.21122254
Ni      12.66470935       7.32981590       2.13100822        3       1.00000000      -0.07402423      -0.11754291       0.14282750
Ni      -0.02268767       1.44016387       4.26514936        6       1.00000000       0.05706163      -0.07588745      -0.27724253
Pt       2.52970536       1.37972828       4.26910789        6       0.00000000       0.08899056      -0.12589747       0.06156239
Ni       5.07429582       1.45520095       4.24792823        5       1.00000000       0.06436686      -0.04221798      -0.16633084
Ni       7.58184251       1.47799829       4.26194939        6       1.00000000      -0.02828905       0.03405005      -0.11725605
Ni       1.26015853       3.70498520       4.27869864        6       1.00000000       0.06671731       0.05352414      -0.27502508
Pt       3.83960534       3.72139858       4.29570925        6       0.00000000       0.09223894      -0.04182551       0.03215539
Ni       6.33019131       3.68542912       4.21009431        5       1.00000000       0.13133797       0.02880995      -0.25793721
Pt       8.89589939       3.67528886       4.17370217        5       0.00000000      -0.00777276       0.05115640       0.06698776
Ni       2.49244100       5.87509278       4.27562562        6       1.00000000      -0.09723219       0.05598139      -0.26748132
Ni       5.09383313       5.87148925       4.23816173        5       1.00000000       0.11656522       0.02854089      -0.24386172
Ni       7.60268422       5.91909167       4.20192314        5       1.00000000       0.04529041       0.02923099      -0.29049581
Ni      10.15455926       5.91409619       4.24452244        5       1.00000000      -0.00195559       0.05431590      -0.18287594
Pt       3.80777407       8.05127437       4.25977506        6       0.00000000       0.00576385      -0.03033060       0.01025340
Ni       6.35133842       8.04300125       4.22190103        5       1.00000000      -0.01559895      -0.10394519      -0.28287031
Ni       8.88150532       8.01341462       4.21791065        5       1.00000000       0.06224952      -0.15513624      -0.23837303
Ni      11.38908439       8.04851150       4.24497160        5       1.00000000      -0.04841748      -0.08857198      -0.14364412
Ni      -0.04723723       0.01504545       6.40596425        8       1.00000000      -0.04465416       0.05938386      -0.16137916
Ni       2.51053484      -0.00548061       6.40503104        8       1.00000000      -0.02492116      -0.01340180      -0.04362785
Pt       5.02502139      -0.05577106       6.37664620        8       0.00000000       0.06299895      -0.06758189       0.02577657
Ni       7.60705665      -0.01424340       6.37336568        8       1.00000000      -0.06976417      -0.04954341      -0.12525771
Pt       1.23236011       2.20686833       6.42374662        8       0.00000000      -0.12806293       0.22781551       0.29668099
Ni       3.78175079       2.21880419       6.40676984        8       1.00000000      -0.01736437      -0.01556149      -0.00137127
Pt       6.31293367       2.19712449       6.37013932        8       0.00000000       0.03311274       0.01582749       0.19209165
Ni       8.85832433       2.17819326       6.28503722        7       1.00000000      -0.04378852      -0.05537193       0.18985921
Ni       2.51994054       4.43511830       6.28936242        7       1.00000000      -0.13520309       0.11283470       0.37632842
Ni       5.02000496       4.42040665       6.39328713        8       1.00000000       0.05421050       0.15641636       0.01189216
Pt       7.62454662       4.43771066       6.31635884        7       0.00000000      -0.08181070       0.08496394       0.74216399
Ni      10.16820368       4.46167721       6.27186964        7       1.00000000       0.14572227       0.13102644       0.13844698
Ni       3.75441249       6.57704160       6.30867012        7       1.00000000      -0.06669537      -0.11683634       0.11289162
Pt       6.29092795       6.66573065       6.36072267        8       0.00000000      -0.10453459      -0.04111388       0.08928578
Ni       8.89093083       6.60104321       6.26348023        7       1.00000000       0.00712625      -0.05349696       0.01554217
Ni      11.42016939       6.58526237       6.32235200        7       1.00000000       0.02598415      -0.05038271      -0.28335762
