64
Lattice="10.455356974981997 0.00638193966798287 0.06615207730727038 5.233205409368895 9.105692457362228 0.028400531972287365 0.05401294494265297 -0.004408109973152075 9.046113475702024" Properties=species:S:1:pos:R:3:tags:I:1:initial_magmoms:R:1:forces:R:3 unique_id=464b4cd43b474ec799d9a27b04dd4976 stress="3.96137494600296e-05 1.7190444024405883e-06 -1.0381320439074358e-05 1.7190444024405883e-06 3.857584775621842e-05 1.0725076859192398e-05 -1.0381320439074358e-05 1.0725076859192398e-05 5.62667592586899e-05" energy=-407.90266286928227 pbc="T T T"
Pt      -0.10958129      -0.01727493       0.06063947        4       0.00000000      -0.16144955       0.04814359      -0.15455866
Ni       2.64347100      -0.02374979       0.07970101        4       1.00000000       0.07612145      -0.07260055       0.17111111
Ni       5.26916939      -0.02164612       0.17465386        4       1.00000000       0.19318531      -0.01871134       0.19992232
Ni       7.81752380       0.00742586       0.15576091        4       1.00000000      -0.18615826       0.02198114       0.20227383
Pt       1.26346208       2.27912295       0.10903410        4       0.00000000       0.01545355       0.00125249       0.13946338
Pt       4.00881016       2.20858872       0.13285271        4       0.00000000       0.08149955      -0.12675737       0.21869586
Ni       6.58913615       2.23846853       0.19231126        4       1.00000000       0.15391649      -0.19656400       0.09370112
Ni       9.10566905       2.28700086       0.13104602        4       1.00000000      -0.16050638       0.00564750       0.12754763
Pt       2.58671021       4.63927262       0.11410153        4       0.00000000       0.05669121       0.07681229       0.06639656
Pt       5.33013003       4.51336118       0.18566940        4       0.00000000       0.21183954      -0.14935626       0.14263151
Ni       7.89852382       4.54571612       0.19810832        4       1.00000000       0.19129043       0.00197939       0.14716054
Ni      10.40542720       4.59042686       0.13047201        4       1.00000000      -0.13743298       0.10558748       0.11083571
Ni       3.90285539       6.86825816       0.18696473        4       1.00000000      -0.06033578       0.06995574       0.17448110
Pt       6.57914967       6.82454252       0.18349536        4       0.00000000       0.08056855       0.01642323       0.24592338
Ni       9.18650474       6.81711828       0.12345060        4       1.00000000       0.10210326      -0.06304984       0.09671969
Ni      11.76520011       6.87262001       0.20890376        4       1.00000000       0.10576597       0.12485447       0.11487718
Pt       1.26669982       0.69078677       2.27442620        3       0.00000000      -0.05673508       0.03280227      -0.21032973
Pt       4.03398971       0.75010871       2.32582222        3       0.00000000      -0.00530830       0.16686210       0.02234412
Ni       6.59773488       0.77079330       2.29267524        3       1.00000000       0.11572289      -0.00208104      -0.04085814
Ni       9.09535521       0.74210902       2.31493915        3       1.00000000      -0.18454066       0.04252935      -0.04909966
Pt       2.65297801       3.05218814       2.30593893        3       0.00000000      -0.05334602       0.02107585      -0.21181442
Ni       5.29507259       3.02053703       2.32971577        3       1.00000000      -0.01661581      -0.04586934       0.02921595
Pt       7.77641225       3.02825930       2.32965832        3       0.00000000      -0.04292800      -0.05025869       0.03488369
Pt      10.35258566       3.06534041       2.31851677        3       0.00000000      -0.06096982      -0.06741707      -0.16010697
Pt       3.99767316       5.40419505       2.28467117        3       0.00000000      -0.00489210      -0.00698768      -0.18575313
Ni       6.59508242       5.28072692       2.33553953        3       1.00000000       0.11892108      -0.08883443       0.04083897
Ni       9.13168554       5.30533247       2.32967071        3       1.00000000      -0.08973475      -0.05167570       0.05693248
Pt      11.70748227       5.36191752       2.33771882        3       0.00000000      -0.03090043      -0.02453718      -0.09024893
Ni       5.20957641       7.59895178       2.28359503        3       1.00000000       0.00443414       0.09892928      -0.06999057
Pt       7.88055564       7.49071950       2.33989099        3       0.00000000      -0.06330958      -0.09589326      -0.02775444
Pt      10.51730337       7.60437467       2.25761955        3       0.00000000       0.13362708      -0.03513260       0.01373460
Ni      13.10937210       7.65775717       2.30223507        3       1.00000000       0.00017781       0.17248214      -0.10872805
Pt      -0.11791028       1.56402179       4.51199401        2       0.00000000      -0.16673275       0.09542065      -0.08469806
Pt       2.66044807       1.48527436       4.50214395        2       0.00000000      -0.05125376       0.12882689       0.09300181
Ni       5.32304702       1.53682494       4.50347180        2       1.00000000       0.14126725       0.08882591      -0.09299029
Ni       7.83535884       1.56169132       4.53034145        2       1.00000000      -0.14598980       0.10568129      -0.15943783
Pt       1.21351299       3.84373090       4.50897482        2       0.00000000      -0.02372693       0.00875913       0.06529961
Pt       4.05113026       3.74877030       4.45645656        2       0.00000000       0.08287339       0.04257665       0.05460446
Ni       6.62822780       3.76383585       4.51124644        2       1.00000000       0.13859957      -0.01973417      -0.02929521
Ni       9.12095970       3.83025547       4.55138019        2       1.00000000      -0.20346181       0.08583343      -0.16031518
Pt       2.60914054       6.10846810       4.46979557        2       0.00000000      -0.03099351       0.02100790       0.07942422
Pt       5.36156591       6.04618211       4.45145293        2       0.00000000       0.13701502      -0.01517180       0.08291683
Ni       7.92505191       6.00323820       4.53303798        2       1.00000000       0.08857619      -0.22906528      -0.10355112
Ni      10.41796225       6.05172145       4.59125278        2       1.00000000      -0.12539261      -0.05055497      -0.00096777
Pt       3.92343274       8.38797640       4.45606187        2       0.00000000      -0.00910566      -0.03851166      -0.14898741
Pt       6.56120616       8.34831179       4.54486736        2       0.00000000      -0.09125663      -0.01455062       0.11984874
Pt       9.19494214       8.25403206       4.59958722        2       0.00000000      -0.03154817      -0.05187847       0.15647310
Pt      11.79046454       8.43935911       4.51934532        2       0.00000000      -0.03684209       0.07883834       0.02355099
Ni       0.01370352       0.01930310       6.65853523        1       1.00000000      -0.11112033       0.01630147      -0.21169800
Ni       2.64511589      -0.01391031       6.75144743        1       1.00000000      -0.05102547       0.04066532      -0.07706254
Pt       5.23927564      -0.03165763       6.81297499        1       0.00000000      -0.01443550      -0.03590581       0.16500958
Ni       7.90425806       0.02681979       6.77882145        1       1.00000000       0.02889248       0.00952799      -0.09114473
Pt       1.24657501       2.22516257       6.68839868        1       0.00000000      -0.08738520      -0.04171663      -0.21577010
Pt       3.95868718       2.22356838       6.69290048        1       0.00000000      -0.03610785       0.05083415      -0.26301735
Pt       6.66896357       2.22674686       6.72807038        1       0.00000000       0.01476870      -0.02233645       0.09863776
Ni       9.18162127       2.26296088       6.78571305        1       1.00000000      -0.04174620      -0.05373052      -0.03402444
Pt       2.60860339       4.54566730       6.68290035        1       0.00000000       0.08359708      -0.04238677      -0.27893795
Pt       5.32296380       4.54831436       6.70132924        1       0.00000000       0.06573539       0.03230892      -0.11910219
Pt       8.00410245       4.55289515       6.72912575        1       0.00000000       0.06302927      -0.04948202       0.12791149
Ni      10.46654410       4.56213514       6.78342448        1       1.00000000       0.02931808      -0.02723545      -0.07967361
Pt       3.95615284       6.92103919       6.79362114        1       0.00000000      -0.00237450       0.02631881       0.12254698
Pt       6.66509672       6.88034162       6.72231081        1       0.00000000       0.05079980       0.06641944      -0.17609445
Ni       9.19239638       6.81366144       6.77310003        1       1.00000000       0.02351548      -0.05885744      -0.06480678
Pt      11.72030856       6.81666916       6.83570592        1       0.00000000      -0.01364376      -0.05862017       0.06190141
