64
Lattice="10.415333500662305 -0.007094138609296938 0.02877154654615479 5.201523046077591 8.968731796197629 -0.019666570283777173 0.023491869382938527 -0.032104857392461515 8.904005419015045" Properties=species:S:1:pos:R:3:tags:I:1:initial_magmoms:R:1:forces:R:3 unique_id=6efe42f472da4dc6826d07d063fc8dda stress="-0.0006116077958919428 -5.794151917312618e-09 -1.535932439712212e-05 -5.794151917312618e-09 -0.0006064827503723183 5.805798703057386e-06 -1.535932439712212e-05 5.805798703057386e-06 -0.0005071377901588736" energy=-403.0381223889042 pbc="T T T"
Ni      -0.04244735       0.00133512       0.16403718        4       1.00000000      -0.23915062      -0.04146562       0.17369662
Ni       2.61929622      -0.01845653       0.17033741        4       1.00000000       0.14771808      -0.07168740       0.24287881
Ni       5.22416216      -0.04010792       0.16224849        4       1.00000000       0.05841727      -0.00566004       0.20937614
Ni       7.83742869      -0.04818309       0.12874579        4       1.00000000       0.06437062      -0.13999450       0.17259347
Ni       1.28643506       2.25248253       0.14827102        4       1.00000000      -0.04117081       0.05382209       0.22309387
Pt       3.84619651       2.29018287       0.13859159        4       0.00000000      -0.07906297       0.07576359       0.22039364
Pt       6.51883241       2.15807649       0.15502178        4       0.00000000       0.04709868      -0.12477398       0.19181694
Ni       9.13691849       2.20058163       0.15173104        4       1.00000000       0.01667812      -0.15145690       0.09487003
Ni       2.58645451       4.50384893       0.05413918        4       1.00000000      -0.03477705       0.09623494      -0.02087225
Ni       5.20280222       4.48801960       0.15476091        4       1.00000000       0.19820987      -0.03625679       0.22562630
Pt       7.88425258       4.50511546       0.07412145        4       0.00000000       0.13397262      -0.04297263      -0.12889754
Ni      10.44316097       4.49179461       0.06359008        4       1.00000000       0.10238734       0.04316995      -0.01464038
Ni       3.87227151       6.74715193       0.15646323        4       1.00000000      -0.05586715       0.09996490       0.18575268
Pt       6.48573097       6.76862634       0.18996367        4       0.00000000      -0.03662540       0.04160011       0.16323192
Ni       9.13762257       6.73079524       0.07350589        4       1.00000000       0.03562499       0.00708634       0.02058085
Ni      11.73304805       6.72394200       0.06391786        4       1.00000000       0.14135356       0.02844340      -0.06194432
Pt       1.26223160       0.69978817       2.16659397        3       0.00000000      -0.02195589      -0.04015127      -0.00605585
Pt       3.96214551       0.75151488       2.24972968        3       0.00000000       0.09332547       0.14404090      -0.08657509
Ni       6.55315475       0.70776558       2.27449810        3       1.00000000       0.12670389      -0.06678334       0.08319106
Ni       9.08421374       0.69880079       2.23216924        3       1.00000000      -0.10451734      -0.02397701      -0.08994871
Ni       2.60911214       3.00649417       2.23776102        3       1.00000000      -0.00680975       0.04148337       0.03146668
Ni       5.20741980       2.99270887       2.26841052        3       1.00000000       0.01768433      -0.01890828       0.03284052
Pt       7.81794021       2.95031170       2.29629456        3       0.00000000      -0.06398638      -0.05091878      -0.16439620
Pt      10.39914661       2.97440377       2.23029601        3       0.00000000       0.00565888       0.03938551       0.05069224
Pt       3.92779849       5.21471702       2.17735816        3       0.00000000       0.01226811      -0.03760779      -0.01431824
Ni       6.53693449       5.23122670       2.24433578        3       1.00000000       0.12502511       0.01009655       0.00024152
Ni       9.09239707       5.24177130       2.27681296        3       1.00000000      -0.03391221      -0.00557476       0.12920682
Pt      11.73262639       5.23477787       2.20224372        3       0.00000000      -0.00171752       0.02871222      -0.06292504
Ni       5.16865344       7.47126393       2.20089681        3       1.00000000      -0.12767283      -0.01715277      -0.06686369
Ni       7.82205787       7.41651766       2.23372381        3       1.00000000       0.04445209      -0.15549806       0.03509525
Pt      10.42015520       7.43347928       2.15123638        3       0.00000000       0.00320105      -0.07887713      -0.04303689
Ni      13.04101427       7.49677504       2.20051481        3       1.00000000      -0.01108934       0.02682610      -0.09989847
Ni      -0.02757075       1.51487854       4.40535167        2       1.00000000      -0.05331368       0.12982288      -0.07271274
Pt       2.61460489       1.53624678       4.36485425        2       0.00000000      -0.08450393       0.09059835       0.09798193
Ni       5.24528524       1.48288972       4.39936586        2       1.00000000       0.06929527      -0.02111161      -0.11681136
Ni       7.84341493       1.47592033       4.40858865        2       1.00000000       0.03485428       0.02382850      -0.10491036
Pt       1.28144901       3.81100304       4.44171679        2       0.00000000      -0.00886209       0.02839414       0.04551506
Ni       3.90934095       3.73389314       4.39230592        2       1.00000000      -0.02839620       0.01406007      -0.14049130
Pt       6.54207672       3.71180101       4.38954372        2       0.00000000      -0.08406468      -0.01623501       0.11125525
Ni       9.12902743       3.75020705       4.44995186        2       1.00000000       0.02530841       0.09966075      -0.11263804
Ni       2.58693489       5.95308807       4.42772517        2       1.00000000      -0.01643907       0.07579533      -0.08798366
Pt       5.18751487       5.93516000       4.34569314        2       0.00000000      -0.03722117       0.05951750       0.08441160
Ni       7.88168362       5.90662551       4.40084398        2       1.00000000       0.07491175      -0.12503700      -0.17073791
Ni      10.39753445       5.93249453       4.47463484        2       1.00000000      -0.05187687       0.00675090      -0.07193750
Pt       3.88449923       8.25817829       4.31234461        2       0.00000000       0.01183521       0.05586780      -0.05193697
Pt       6.51394364       8.19056581       4.33706099        2       0.00000000       0.03329696      -0.05376514       0.08530233
Pt       9.13212158       8.11353191       4.40771322        2       0.00000000      -0.04026349      -0.02641408       0.10297547
Pt      11.74587187       8.18617043       4.39824787        2       0.00000000      -0.00632408      -0.03243442      -0.04946301
Pt      -0.03681130      -0.01396953       6.66157855        1       0.00000000      -0.04310123       0.02252615       0.07651842
Pt       2.64534213      -0.05049728       6.69389463        1       0.00000000      -0.01547951       0.00340947       0.11382129
Pt       5.28114018      -0.12966955       6.68754876        1       0.00000000       0.03543918      -0.25866048       0.10082548
Ni       7.81801861      -0.03466561       6.63526267        1       1.00000000       0.02091333       0.03928271      -0.13439211
Pt       1.29181859       2.31456583       6.66324114        1       0.00000000       0.00578627       0.13318938       0.13940416
Pt       3.91907284       2.25234796       6.53615469        1       0.00000000      -0.01438994      -0.03186009      -0.34597603
Pt       6.55773775       2.17925948       6.54208415        1       0.00000000       0.01118797      -0.03339659      -0.25466739
Pt       9.11722456       2.29037112       6.59656975        1       0.00000000       0.00758696       0.13933193      -0.00770375
Ni       2.56886766       4.50122083       6.59215522        1       1.00000000      -0.12188817       0.09555346      -0.15930635
Pt       5.20164213       4.47154764       6.64368999        1       0.00000000      -0.07428057       0.02811704       0.09649185
Ni       7.88307665       4.48118198       6.51876415        1       1.00000000       0.10780408       0.05871805      -0.27402033
Ni      10.41002741       4.53288630       6.60675612        1       1.00000000      -0.08411729       0.19432251      -0.14432310
Pt       3.78051772       6.70161066       6.64204377        1       0.00000000      -0.15795950       0.07066306       0.14533084
Pt       6.59557136       6.64571880       6.56023064        1       0.00000000       0.07049422       0.01041931      -0.14265089
Ni       9.16718801       6.62769782       6.59645191        1       1.00000000       0.05914196      -0.17512902      -0.16985362
Ni      11.69712015       6.64393186       6.61129244        1       1.00000000      -0.16120916      -0.23269879      -0.21358995
