64
Lattice="10.296618209039648 -0.023974786942236846 0.07272246336457411 5.127546329977524 8.903287757064215 0.052264044651141275 0.05937764269381652 0.014993315853624616 8.818789041328985" Properties=species:S:1:pos:R:3:tags:I:1:initial_magmoms:R:1:forces:R:3 unique_id=e09e45c9740d419ab6dff2a20af17aef stress="0.0002909227511461443 1.0751982809229849e-05 -5.5629933925725294e-05 1.0751982809229849e-05 0.00029256203217600113 -1.0974274216624092e-05 -5.5629933925725294e-05 -1.0974274216624092e-05 0.0002785670724921377" energy=-398.1276470570894 pbc="T T T"
Ni       0.01764408      -0.00258348       0.17463102        4       1.00000000       0.07063178       0.05590183       0.32374581
Ni       2.57820125       0.00455361       0.21841015        4       1.00000000       0.02635167       0.04701394       0.43416272
Ni       5.14911994      -0.02191678       0.18874746        4       1.00000000      -0.04547311       0.12121099       0.21633035
Ni       7.72493499      -0.07440699       0.24044146        4       1.00000000       0.01630816      -0.11364146       0.39525677
Ni       1.29788384       2.23497765       0.11968433        4       1.00000000       0.05591340       0.03199553       0.25542651
Pt       3.79119977       2.23465072       0.21496892        4       0.00000000      -0.02349852       0.08165775       0.06281361
Pt       6.41467998       2.16177592       0.16662530        4       0.00000000       0.02758447      -0.07555311      -0.05445550
Pt       9.09790821       2.21379575       0.18992538        4       0.00000000       0.15751121       0.03010643       0.09333686
Ni       2.57058761       4.48177081       0.09509885        4       1.00000000       0.12254738       0.08383319      -0.00253156
Ni       5.09975830       4.47270961       0.23946537        4       1.00000000      -0.07176114       0.02429222       0.33794271
Pt       7.71458247       4.47413102       0.19072023        4       0.00000000       0.06041742       0.10152188       0.19860451
Ni      10.35246450       4.46216076       0.15111631        4       1.00000000       0.18272754       0.10135871       0.14746314
Ni       3.81264700       6.67604513       0.15002696        4       1.00000000      -0.06012634      -0.00962528       0.22221183
Pt       6.39202470       6.73717197       0.25018254        4       0.00000000      -0.00547090       0.05936658       0.11373790
Ni       9.02989925       6.69737247       0.15052159        4       1.00000000       0.01964960       0.04582344       0.09656453
Ni      11.59891920       6.66066842       0.15728458        4       1.00000000       0.16816194      -0.00295669       0.02517320
Ni       1.33463445       0.75604570       2.24028860        3       1.00000000       0.07103182       0.07183441       0.10701793
Ni       3.84346511       0.77048530       2.26502205        3       1.00000000      -0.06146423       0.16433575       0.07888836
Ni       6.43820319       0.76603174       2.28261467        3       1.00000000      -0.05551931       0.13345781       0.12903637
Pt       9.03918697       0.72048080       2.30712394        3       0.00000000       0.05190114       0.21089657      -0.07059151
Ni       2.57818616       2.94253838       2.30298365        3       1.00000000       0.00316148      -0.10546518       0.18978056
Ni       5.12868290       2.96813160       2.29247879        3       1.00000000      -0.20141697      -0.05553456       0.00184031
Ni       7.71219375       2.92868123       2.31175810        3       1.00000000       0.08101813      -0.07762648      -0.12221575
Ni      10.35403559       2.92833457       2.33666783        3       1.00000000       0.17876338      -0.06509125       0.10863928
Ni       3.88571859       5.18334034       2.23269705        3       1.00000000      -0.01871259      -0.07892462      -0.06338979
Ni       6.39460533       5.18428725       2.27757127        3       1.00000000       0.04852623      -0.01852420      -0.16367605
Pt       8.98770934       5.15947295       2.35098800        3       0.00000000      -0.12764709      -0.14074917      -0.18407459
Pt      11.67685796       5.12611186       2.28068386        3       0.00000000       0.10937194      -0.06198577       0.07040076
Ni       5.14195245       7.42174485       2.27316088        3       1.00000000       0.00674922       0.04069246       0.00295142
Ni       7.68305893       7.45511572       2.30285391        3       1.00000000      -0.13026277       0.03786860       0.05207365
Pt      10.29932127       7.45751730       2.21550221        3       0.00000000       0.05318629      -0.04577521      -0.07955068
Ni      12.90420682       7.37843412       2.28259376        3       1.00000000       0.12319922      -0.13823036       0.01723068
Ni       0.09054420       1.53584403       4.34254742        2       1.00000000       0.21072842       0.03827763      -0.17759930
Ni       2.55715254       1.53247091       4.34626887        2       1.00000000      -0.07140224       0.05337254      -0.19445134
Ni       5.15467074       1.50140600       4.37342642        2       1.00000000      -0.17493317      -0.01797920      -0.20314691
Ni       7.75382998       1.49676704       4.41796660        2       1.00000000       0.04101081      -0.05148341      -0.09164419
Ni       1.33443426       3.67036961       4.41641070        2       1.00000000       0.06343507      -0.09384273      -0.09368311
Ni       3.82163371       3.70274049       4.35339114        2       1.00000000      -0.15071534      -0.06353570      -0.25121072
Pt       6.45797348       3.63798528       4.33942156        2       0.00000000      -0.02298971      -0.03379245       0.03362427
Ni       9.06622134       3.65603241       4.39521404        2       1.00000000       0.08699405      -0.24134334      -0.23188463
Ni       2.59264885       5.89068626       4.43944027        2       1.00000000       0.00902748      -0.11550246      -0.04933274
Pt       5.13829775       5.90741246       4.32021459        2       0.00000000      -0.01437410      -0.09725198       0.03079864
Ni       7.73086498       5.94275973       4.40998231        2       1.00000000      -0.13003032       0.04617617      -0.14265302
Pt      10.33130513       5.84291217       4.55693535        2       0.00000000       0.04745666      -0.05742863       0.05575348
Pt       3.90952349       8.17270649       4.39381458        2       0.00000000      -0.02393429      -0.04369301       0.19640476
Ni       6.44814425       8.20791218       4.37611022        2       1.00000000      -0.06476451       0.11086596      -0.17963965
Pt       8.94170080       8.19497244       4.39310283        2       0.00000000      -0.09688700       0.09244541       0.08194847
Pt      11.60674090       8.17627251       4.41111191        2       0.00000000       0.04995265       0.05198619       0.02621353
Pt       0.04400035       0.02579183       6.56675374        1       0.00000000      -0.02505489       0.00290976       0.14882109
Pt       2.59878145       0.02659312       6.59946969        1       0.00000000      -0.06038919       0.02309874       0.17498709
Pt       5.18649861      -0.04302036       6.62642882        1       0.00000000      -0.01503757      -0.05837612       0.01785638
Pt       7.74682523      -0.05303227       6.66361814        1       0.00000000      -0.12068204      -0.08516082       0.21556326
Ni       1.31832656       2.30049294       6.51876516        1       1.00000000      -0.01854196       0.15500553      -0.23462900
Pt       3.83914012       2.26950434       6.46042663        1       0.00000000      -0.08019838       0.10536618      -0.25095523
Ni       6.46851786       2.21668013       6.51091422        1       1.00000000      -0.04738806      -0.01643317      -0.27446527
Pt       9.09286325       2.25470075       6.48280997        1       0.00000000      -0.00606294       0.03079944      -0.37841746
Ni       2.54126060       4.48634808       6.54082730        1       1.00000000      -0.15413120       0.03137888      -0.26211975
Pt       5.10460406       4.46704054       6.62541504        1       0.00000000      -0.11811725       0.03865014       0.15726773
Pt       7.81877521       4.46942076       6.50498809        1       0.00000000       0.07831841       0.00127997      -0.44347195
Ni      10.38976902       4.44499531       6.62809867        1       1.00000000       0.14568421      -0.08938471      -0.04408889
Ni       3.82436350       6.65210308       6.58775460        1       1.00000000      -0.18717387      -0.09805717      -0.11408064
Pt       6.46727461       6.67873046       6.52772402        1       0.00000000      -0.06849364       0.04521863      -0.27109884
Ni       9.07636597       6.65157111       6.62829790        1       1.00000000       0.05464912      -0.00213374      -0.10578357
Ni      11.61767098       6.59970173       6.64917955        1       1.00000000       0.03068432      -0.11491731      -0.08502682
