64
Lattice="10.312839958045709 -0.01375994079377924 0.01502420867109504 5.144503520740865 8.869490959512673 0.0019032412117736368 0.012267215011093794 -0.005288086866090247 8.78697965370591" Properties=species:S:1:pos:R:3:tags:I:1:initial_magmoms:R:1:forces:R:3 unique_id=1ae7d4cb860e4a50b93ad16dd40e1313 stress="0.00019878358877943592 6.6787392600548655e-06 -1.9762901995493513e-05 6.6787392600548655e-06 0.00021010664939649648 2.0640653534391326e-05 -1.9762901995493513e-05 2.0640653534391326e-05 0.00020305651260852514" energy=-397.05011529260173 pbc="T T T"
Ni      -0.02393451       0.03273696       0.21116033        4       1.00000000      -0.08442111       0.13524070       0.35186878
Ni       2.57487871       0.00404861       0.21984816        4       1.00000000      -0.03143342       0.03585363       0.41553094
Ni       5.15592261      -0.01581984       0.17179812        4       1.00000000      -0.01279084       0.14223472       0.30996166
Ni       7.76458985      -0.04568135       0.12339891        4       1.00000000       0.11590914      -0.06165392       0.22613317
Ni       1.24887942       2.21908139       0.19496441        4       1.00000000      -0.15576948       0.00399419       0.31474608
Pt       3.80264606       2.21948619       0.11631739        4       0.00000000      -0.05797987       0.05233176      -0.15036938
Pt       6.47738089       2.15337038       0.20564722        4       0.00000000       0.11188854      -0.09218660       0.22179299
Ni       9.06268844       2.18256317       0.19432742        4       1.00000000       0.10942896      -0.08088827       0.24160833
Ni       2.55356246       4.45264496       0.05763552        4       1.00000000      -0.05582402       0.01529300      -0.09337289
Ni       5.14540279       4.43606829       0.16525655        4       1.00000000       0.20136840      -0.09289347       0.22410296
Pt       7.80820059       4.43648570       0.11688536        4       0.00000000       0.15416979      -0.02010729      -0.11023193
Ni      10.33167683       4.41718627       0.08749478        4       1.00000000       0.07091422      -0.10172134       0.09115247
Ni       3.82060112       6.68137928       0.08873566        4       1.00000000      -0.07580075       0.12828149       0.06946506
Pt       6.40924728       6.70230321       0.20482571        4       0.00000000      -0.07971950       0.05711263       0.18522095
Ni       9.03811152       6.65839133       0.08780000        4       1.00000000       0.00146141       0.02930914       0.04933472
Ni      11.61521615       6.64890364       0.06925698        4       1.00000000       0.11265452       0.02184404      -0.01762245
Ni       1.26572712       0.76149605       2.16292404        3       1.00000000      -0.11959881       0.12081755       0.00110613
Ni       3.85994280       0.75691586       2.20438959        3       1.00000000       0.04764997       0.05617973       0.02455610
Ni       6.48023685       0.73873010       2.25133138        3       1.00000000       0.12844786       0.06251801       0.13239554
Ni       9.02725225       0.75151618       2.19902615        3       1.00000000      -0.04761586       0.11176881       0.04348158
Ni       2.55505848       2.93183260       2.20457062        3       1.00000000      -0.09499068       0.03040808      -0.06813023
Ni       5.14989475       2.92356586       2.24435219        3       1.00000000      -0.08634496      -0.13210079       0.01938829
Ni       7.78645227       2.92687188       2.24700870        3       1.00000000       0.24641895      -0.09573402      -0.06046472
Ni      10.28796951       2.89955231       2.22434009        3       1.00000000      -0.06496739      -0.08789020       0.11695528
Pt       3.87323081       5.15829819       2.15743735        3       0.00000000      -0.06634224      -0.01023750      -0.04727968
Ni       6.47948870       5.15618759       2.22327927        3       1.00000000       0.11351947       0.01748328      -0.07456452
Ni       8.99513903       5.13911398       2.24566022        3       1.00000000      -0.04287022      -0.10045897       0.14445411
Pt      11.57430517       5.09369305       2.18209504        3       0.00000000      -0.06759767      -0.10634606      -0.02056635
Ni       5.12131101       7.43600960       2.19011369        3       1.00000000      -0.16280675       0.08597282      -0.08901138
Ni       7.72858902       7.38780775       2.20906310        3       1.00000000       0.02694210      -0.06941898      -0.00987891
Pt      10.29175026       7.39768655       2.12304691        3       0.00000000       0.04343199      -0.11419186      -0.04309211
Ni      12.90411934       7.41202555       2.17266182        3       1.00000000      -0.00932360       0.01126577      -0.11742614
Ni      -0.01800229       1.54090909       4.31237317        2       1.00000000       0.00410288       0.17015321      -0.16892607
Pt       2.59409125       1.57797639       4.27740084        2       0.00000000      -0.06956536       0.03708668      -0.00659081
Ni       5.15703340       1.49655315       4.32692383        2       1.00000000       0.01582797       0.02646816      -0.17742584
Ni       7.76928040       1.48610097       4.31838361        2       1.00000000       0.09803001       0.05137590      -0.20257649
Ni       1.28908200       3.70236375       4.35746065        2       1.00000000      -0.01103739      -0.04158017      -0.13761865
Ni       3.84132311       3.69484690       4.36433522        2       1.00000000      -0.02112229       0.06924566      -0.17112073
Pt       6.50051327       3.65728041       4.26425924        2       0.00000000      -0.01527656      -0.08871999       0.04376637
Ni       9.04040114       3.65520643       4.34022552        2       1.00000000       0.08580739      -0.13020266      -0.26221768
Ni       2.56186160       5.86613984       4.40876849        2       1.00000000      -0.03621110      -0.05214361      -0.08981559
Pt       5.11706142       5.87900124       4.31964539        2       0.00000000       0.07307776       0.03277652       0.03987469
Ni       7.75939551       5.86143540       4.34268449        2       1.00000000       0.00608542      -0.03898290      -0.22023358
Pt      10.30446475       5.80437194       4.44140855        2       0.00000000      -0.02581899      -0.01709746      -0.05825612
Pt       3.83816918       8.17258514       4.29962852        2       0.00000000      -0.02251093       0.10387771      -0.04737101
Pt       6.43106103       8.16221159       4.24870464        2       0.00000000      -0.02461829       0.07545889       0.04199358
Pt       9.01474501       8.11043120       4.32404898        2       0.00000000      -0.07937488       0.06102537       0.10505057
Pt      11.62447723       8.14319606       4.35231901        2       0.00000000       0.04108848       0.00827820      -0.02722084
Pt      -0.05439942      -0.02984135       6.58896690        1       0.00000000      -0.05541794      -0.03598917       0.22793798
Pt       2.61281372       0.00572647       6.60746292        1       0.00000000       0.00541600       0.06504014       0.24213624
Pt       5.20850745      -0.08566104       6.59559350        1       0.00000000       0.03312605      -0.28397056       0.14414403
Ni       7.74047648      -0.05930682       6.54740016        1       1.00000000       0.02079225      -0.08930781      -0.08821411
Pt       1.32294997       2.33066281       6.54883212        1       0.00000000       0.06222926       0.14208586       0.20192244
Ni       3.86911686       2.22725986       6.44481917        1       1.00000000       0.00211298      -0.07717166      -0.30929059
Pt       6.44813431       2.18254964       6.46259049        1       0.00000000      -0.02243957      -0.01508668      -0.24245227
Pt       9.02414446       2.26731888       6.51080830        1       0.00000000       0.01868551       0.05779202       0.06690934
Ni       2.55400454       4.48464751       6.49751504        1       1.00000000      -0.14959842       0.19494380      -0.26867817
Pt       5.05329613       4.40675564       6.56100328        1       0.00000000      -0.18423162       0.03946566       0.06918518
Ni       7.77967883       4.44218005       6.44213079        1       1.00000000       0.05291418       0.00109457      -0.32274017
Ni      10.31981946       4.46474062       6.54127139        1       1.00000000       0.00791748       0.10496942      -0.01788384
Ni       3.79123551       6.63444196       6.52750373        1       1.00000000      -0.16633371       0.01596164      -0.16005757
Pt       6.49518824       6.58282985       6.48798973        1       0.00000000       0.04200436      -0.07244177      -0.24375928
Ni       9.05582145       6.58061896       6.53843259        1       1.00000000       0.03719986      -0.12965281      -0.10890293
Ni      11.63738719       6.58861037       6.54384052        1       1.00000000       0.10913107      -0.13683224      -0.13281255
