64
Lattice="10.15932987372536 0.0029385985976608377 -0.03265907950834394 5.082209837899835 8.771526974102432 -0.06683860705574085 -0.026666026754809814 -0.04762040533379616 8.69422178828743" Properties=species:S:1:pos:R:3:tags:I:1:initial_magmoms:R:1:forces:R:3 unique_id=e8aa6e51a6114b1e9e102b12aab6fa4c stress="-6.811335786374023e-05 -3.7800623585960195e-06 1.4147934660086071e-05 -3.7800623585960195e-06 -5.673970258442129e-05 1.1637799873290707e-06 1.4147934660086071e-05 1.1637799873290707e-06 -2.42094635434717e-05" energy=-391.066137555711 pbc="T T T"
Ni       0.03856830      -0.04918170       0.18042694        4       1.00000000       0.08537308      -0.07467725       0.26223285
Ni       2.50628530      -0.04669438       0.10930193        4       1.00000000      -0.06303120      -0.10277884       0.17329790
Ni       5.06824627      -0.04998627       0.16829592        4       1.00000000      -0.08890022      -0.10218239       0.30498238
Ni       7.60891370      -0.06881120       0.15657989        4       1.00000000      -0.05646048      -0.10728735       0.33535211
Ni       1.26667949       2.19803493       0.09419505        4       1.00000000      -0.00242762       0.01969031       0.24013357
Pt       3.71804864       2.15792020       0.16405662        4       0.00000000      -0.12498232      -0.03476216       0.26401310
Pt       6.35813187       2.15592221       0.07169471        4       0.00000000       0.01598919      -0.04025554      -0.01410378
Pt       8.96619769       2.24641354       0.08177580        4       0.00000000       0.06099438       0.07726565       0.14037430
Ni       2.48390059       4.42059917       0.07241225        4       1.00000000      -0.09820054       0.04860986       0.17132766
Pt       5.06869703       4.48325029       0.05577879        4       0.00000000      -0.07217590       0.13143319      -0.06713875
Ni       7.64797575       4.44575226       0.06117950        4       1.00000000       0.02212172       0.12719657       0.22431548
Ni      10.19078965       4.43124018       0.04865764        4       1.00000000       0.06774700       0.18916174       0.19903767
Ni       3.77866785       6.60795160       0.06004910        4       1.00000000      -0.08774044       0.07540015       0.18016940
Ni       6.37117664       6.61724886       0.05417597        4       1.00000000       0.01268672       0.03722800       0.12990454
Ni       8.86421614       6.55751384       0.10037906        4       1.00000000      -0.10538604      -0.06435455       0.24043273
Ni      11.45047315       6.55424819       0.00708584        4       1.00000000       0.02827093      -0.08148546       0.01496691
Ni       1.30106313       0.72727478       2.18270375        3       1.00000000       0.05149460       0.04743746       0.06279729
Ni       3.75054489       0.70483213       2.17436864        3       1.00000000      -0.19334484      -0.08548609      -0.04491094
Ni       6.34666784       0.71382879       2.16913703        3       1.00000000       0.07596872      -0.06933177       0.04587055
Pt       8.90403595       0.72423458       2.17219128        3       0.00000000       0.11025023       0.20123701      -0.10628115
Ni       2.49120896       2.93694867       2.22152208        3       1.00000000      -0.03758889       0.03003171       0.11134064
Ni       5.05783969       2.94565130       2.17994327        3       1.00000000      -0.10128392       0.18056968      -0.07400902
Ni       7.62689309       2.96178001       2.17375875        3       1.00000000       0.15205628       0.03472809      -0.11269148
Ni      10.20672301       2.96293226       2.19146056        3       1.00000000       0.08662626       0.06037989       0.08134985
Ni       3.75852275       5.10621605       2.15766472        3       1.00000000      -0.14254208      -0.03860079       0.02494189
Ni       6.38297160       5.13519705       2.12666842        3       1.00000000       0.11058051       0.06696561      -0.06377670
Ni       8.87775396       5.07562653       2.13511434        3       1.00000000       0.04666052      -0.06605115       0.08960372
Ni      11.44088875       5.06986854       2.12777107        3       1.00000000       0.03632058      -0.10542463       0.12387270
Ni       5.10787278       7.26471389       2.08750473        3       1.00000000       0.02059190      -0.08999104      -0.01787556
Ni       7.56661558       7.28906469       2.08775810        3       1.00000000      -0.07043563      -0.04647265       0.01802891
Pt      10.18491102       7.24646263       2.09014262        3       0.00000000       0.05264872      -0.20327281       0.09613013
Ni      12.70183944       7.24451947       2.07877820        3       1.00000000       0.05217121      -0.17965427       0.06570694
Ni       0.04781610       1.48297362       4.28108537        2       1.00000000       0.08724166       0.08334166      -0.09989107
Ni       2.45422442       1.46763090       4.26231108        2       1.00000000      -0.03621413       0.07950441      -0.13403789
Pt       5.07152990       1.44146846       4.19408195        2       0.00000000      -0.12299218       0.03235542       0.04424502
Ni       7.61953269       1.44853199       4.25774898        2       1.00000000       0.04610216      -0.03214433      -0.09596800
Ni       1.25774508       3.63796672       4.29563045        2       1.00000000       0.02480425       0.03097543      -0.06680616
Ni       3.72320216       3.66351385       4.24397747        2       1.00000000      -0.11557632       0.02445817      -0.19219993
Pt       6.42057270       3.64542662       4.25618043        2       0.00000000       0.07756816      -0.06492554      -0.09131593
Ni       8.94144231       3.67991990       4.21310166        2       1.00000000       0.20557160       0.07254617      -0.20850955
Ni       2.47681613       5.77935730       4.28280523        2       1.00000000      -0.08702769      -0.06652494      -0.15375615
Pt       5.06683587       5.82131860       4.25234643        2       0.00000000       0.03956067      -0.06137039      -0.15248571
Ni       7.62698301       5.80529297       4.22923137        2       1.00000000       0.09036611      -0.00437965      -0.20362287
Ni      10.18120450       5.76825565       4.25379377        2       1.00000000       0.04284293      -0.08356465      -0.07246545
Pt       3.77413517       8.00549414       4.22204561        2       0.00000000      -0.08502468       0.00685236       0.15217325
Ni       6.34339302       8.03790410       4.21597552        2       1.00000000      -0.13339682       0.05263314      -0.21001236
Pt       8.80174872       7.98445464       4.19829410        2       0.00000000      -0.07369624      -0.07268015       0.11293027
Ni      11.41526628       7.96311213       4.21613745        2       1.00000000      -0.04214025      -0.12161336       0.01828486
Pt       0.08110633      -0.05838854       6.48159033        1       0.00000000       0.15370332      -0.00433680       0.13111147
Ni       2.51649274      -0.03421576       6.43761812        1       1.00000000       0.04328981       0.01841594      -0.12263125
Pt       5.04053796      -0.04294629       6.48720017        1       0.00000000       0.02751525       0.02192994       0.12261337
Pt       7.60282677      -0.07331810       6.46372757        1       0.00000000      -0.01722000      -0.03247180       0.17391014
Ni       1.25547423       2.20460427       6.39618787        1       1.00000000      -0.00380390       0.15608734      -0.19813792
Pt       3.72539296       2.24443417       6.35046135        1       0.00000000      -0.03600085       0.18520042      -0.26681128
Ni       6.33117490       2.20230072       6.34413718        1       1.00000000      -0.03566544       0.02013843      -0.24370048
Pt       8.89382064       2.25578916       6.28101972        1       0.00000000       0.02032068       0.14014644      -0.45217321
Ni       2.48909148       4.39916590       6.38134241        1       1.00000000      -0.03836353       0.13192940      -0.18211039
Ni       5.06488848       4.38522403       6.33542848        1       1.00000000      -0.02471079       0.03536596      -0.23632994
Ni       7.56958682       4.36256040       6.39933359        1       1.00000000      -0.12114851      -0.03715889      -0.03783710
Ni      10.20361742       4.36384662       6.35931856        1       1.00000000       0.21395702      -0.00136594      -0.17556185
Ni       3.78277001       6.48115101       6.41010625        1       1.00000000       0.00490456      -0.12518952      -0.05078477
Ni       6.33100934       6.50986094       6.39617709        1       1.00000000       0.00116367      -0.08524511      -0.10370312
Pt       8.84526601       6.44836307       6.41387583        1       0.00000000       0.04059321      -0.11675631       0.10755289
Ni      11.43698312       6.47876561       6.35122009        1       1.00000000       0.00942383      -0.01741943      -0.21136473
