64
Lattice="10.228967412482216 -0.016588076814815153 0.004683206702878437 5.1001180103195525 8.874130878812135 -0.007163957373061692 0.0 0.0 21.617227326450024" Properties=species:S:1:pos:R:3:tags:I:1:initial_magmoms:R:1:forces:R:3 unique_id=79169703b7a24cf987083874eb60c639 energy=-372.80699763464713 stress="0.004101851025266629 -9.943081045410295e-05 0.00019463073190254386 -9.943081045410295e-05 0.004272369743849468 -0.0002807636576806734 0.00019463073190254386 -0.0002807636576806734 -0.0026236912739784554" pbc="T T T"
Ni       0.05149835       0.04432522       0.16807933        2       1.00000000       0.18474989       0.09909807      -0.55181030
Ni       2.57593434       0.03276426       0.21934349        2       1.00000000       0.00911780      -0.01079301      -0.20228132
Ni       5.06340630      -0.01968645       0.08915334        1       1.00000000      -0.03159039       0.07947642       0.22443174
Pt       7.68136564      -0.05412533       0.00210316        0       0.00000000      -0.06861892       0.12382146      -0.51139173
Ni       1.28048988       2.22963194       0.12118907        1       1.00000000       0.04443322       0.05032177       0.42996680
Ni       3.78654432       2.21703501       0.21039831        2       1.00000000      -0.00097374       0.04476737      -0.02923870
Pt       6.36215543       2.29495720       0.17668685        2       0.00000000      -0.03333583       0.07493386      -0.90229277
Ni       8.99802655       2.26264289       0.08488463        1       1.00000000      -0.02736765       0.06164226       0.18706454
Ni       2.55664112       4.41019579       0.08468421        1       1.00000000       0.03008356      -0.13777952       0.27487668
Ni       5.05020446       4.43170474       0.17849925        2       1.00000000      -0.19317434       0.02479180      -0.22724932
Ni       7.73286661       4.42316889       0.08827369        1       1.00000000       0.17707213       0.01743858       0.10206023
Ni      10.21234362       4.39816215       0.07723124        1       1.00000000      -0.02002498       0.00123900       0.23465258
Ni       3.81136882       6.59590619       0.06123188        1       1.00000000      -0.02889034      -0.13202029       0.06099344
Pt       6.43055412       6.65125395       0.00000000        0       0.00000000       0.16352646       0.06998008      -0.46436398
Ni       8.95624483       6.62740188       0.14980642        1       1.00000000      -0.05226266      -0.13641377      -0.13060195
Ni      11.47612812       6.59806080       0.05144407        1       1.00000000      -0.05047501      -0.07009355       0.12119896
Ni       1.33672108       0.78524886       2.17948287        3       1.00000000       0.05580736       0.11058147       0.01947726
Ni       3.78653642       0.75367564       2.19893928        3       1.00000000      -0.01184543      -0.01507480       0.08730373
Pt       6.30113085       0.76601099       2.29262420        4       0.00000000      -0.07615859       0.06171237       0.16868904
Pt       9.02568997       0.82949091       2.19777653        3       0.00000000      -0.03389556      -0.00763126       0.02782613
Ni       2.57095510       2.93567645       2.18535766        3       1.00000000      -0.05370265       0.02478822       0.03659887
Ni       5.01952629       2.96975927       2.24795822        3       1.00000000      -0.16318144      -0.00321191       0.26915683
Ni       7.72715420       2.99164294       2.22489236        3       1.00000000       0.13740695       0.03670794       0.13155287
Ni      10.23473601       2.95489122       2.20432841        3       1.00000000       0.05537190      -0.01718090       0.05205097
Ni       3.82682513       5.10258335       2.22519495        3       1.00000000      -0.03566176      -0.09184916       0.13677815
Pt       6.42934540       5.12677775       2.20578326        3       0.00000000       0.06535473      -0.09717728       0.08429953
Ni       8.93802115       5.12020392       2.22360686        3       1.00000000       0.04205571      -0.10495096       0.08266873
Pt      11.48091222       5.06612468       2.17227619        3       0.00000000      -0.03211580      -0.07155383      -0.01839786
Pt       5.13421608       7.37866221       2.19041330        3       0.00000000      -0.00910407      -0.04486162      -0.05292472
Ni       7.67129404       7.40840968       2.21504024        3       1.00000000      -0.03352715       0.00102753       0.13496310
Pt      10.11272630       7.36250547       2.24212428        3       0.00000000      -0.09718803      -0.07282705       0.10333592
Pt      12.75587943       7.31731894       2.22754141        3       0.00000000      -0.02777604      -0.04170333       0.07337988
Ni       0.01543290       1.50803568       4.40380906        6       1.00000000       0.11493467      -0.04255961      -0.11177913
Pt       2.59293601       1.48923854       4.28708091        5       0.00000000       0.07778946       0.02028791      -0.01318834
Ni       5.09496297       1.44185058       4.39923477        6       1.00000000      -0.03955114       0.00339310      -0.01191704
Pt       7.73046279       1.48360130       4.39678240        6       0.00000000       0.10182462       0.06314358       0.13598368
Pt       1.24040991       3.73118505       4.44529074        6       0.00000000      -0.00981149      -0.00092370       0.03203139
Ni       3.82609896       3.73454450       4.35192899        6       1.00000000      -0.00844368       0.04859025      -0.15594271
Pt       6.38326850       3.72343980       4.36487841        6       0.00000000      -0.04294576       0.08164211      -0.05881298
Ni       8.95759178       3.72516909       4.40169738        6       1.00000000      -0.01671220       0.15241876      -0.07698518
Ni       2.53524789       5.88430248       4.43441564        6       1.00000000      -0.08953811      -0.09014845      -0.04464374
Ni       5.07230039       5.88736573       4.38553017        6       1.00000000      -0.02929945      -0.11222590      -0.21651359
Ni       7.72262117       5.88651564       4.38306906        6       1.00000000       0.18300022      -0.05024115      -0.19492879
Ni      10.21695707       5.90952199       4.39578961        6       1.00000000      -0.02200170      -0.01381081      -0.12554283
Pt       3.78346614       8.04608999       4.43217563        6       0.00000000       0.02709990      -0.05019032      -0.03500468
Pt       6.44062558       8.06888781       4.35610008        6       0.00000000       0.13899099      -0.03665713      -0.09045330
Ni       8.98767719       8.10543126       4.38749074        6       1.00000000       0.01175130       0.02123828      -0.04624553
Ni      11.43545598       8.08140960       4.44324499        6       1.00000000      -0.10917876      -0.05856934      -0.02229886
Pt      -0.05406716       0.03605908       6.60844414        9       0.00000000      -0.10586942       0.07778880       0.26888814
Pt       2.58431490      -0.03160304       6.61722733        9       0.00000000       0.06336045      -0.09969554       0.17712781
Ni       5.15764067      -0.05608513       6.51609953        8       1.00000000       0.01489488      -0.00885117      -0.16516719
Ni       7.62769361      -0.06708042       6.44965326        7       1.00000000      -0.10167841      -0.02406751       0.56213252
Ni       1.23444047       2.25723827       6.55511884        9       1.00000000      -0.01713496      -0.04732421      -0.14171768
Pt       3.79392090       2.25875320       6.57837155        9       0.00000000       0.14898967       0.20446383       0.09432830
Pt       6.43330401       2.17490684       6.52908048        8       0.00000000      -0.16764521       0.03507885       1.00289658
Ni       8.98900156       2.25673152       6.54395638        8       1.00000000       0.04158102       0.13216025      -0.14155079
Ni       2.50480187       4.48410677       6.54100227        8       1.00000000       0.01247913       0.10716138      -0.17415846
Pt       5.07744480       4.53699794       6.57392208        9       0.00000000      -0.09739632      -0.07007212       0.16290010
Ni       7.70948981       4.42131318       6.53434122        8       1.00000000       0.04188853      -0.06898633      -0.18459760
Ni      10.23116787       4.39878929       6.54755284        8       1.00000000      -0.02471319       0.03041331      -0.18241875
Ni       3.76951384       6.64251437       6.53505348        8       1.00000000      -0.08579239       0.02180982      -0.07656918
Ni       6.38405544       6.63121869       6.42735082        7       1.00000000       0.08530940      -0.01528182       0.36591663
Pt       9.00367353       6.56927288       6.52282360        8       0.00000000       0.00105389       0.00795091      -0.11939276
Ni      11.53094039       6.63036057       6.50935258        8       1.00000000       0.01865470      -0.04514201      -0.36514938
