64
Lattice="10.123870751313719 0.0030452362696353178 -0.0359994147015088 5.064572627626891 8.699740883574565 -0.04315425745871452 0.0 0.0 21.4568054030101" Properties=species:S:1:pos:R:3:tags:I:1:initial_magmoms:R:1:forces:R:3 unique_id=992a099dfbba4b4ca7a2ac93d3b9e171 stress="0.005269421718950957 -9.692157526844946e-06 -0.00035183499460893057 -9.692157526844946e-06 0.004126632299028633 -0.0001790281133979333 -0.00035183499460893057 -0.0001790281133979333 -0.0017692518739066496" energy=-366.39987385069844 pbc="T T T"
Ni       0.02185667      -0.01542554       0.19268438        2       1.00000000       0.03928694       0.10741919      -0.56886053
Ni       2.48995690      -0.00375780       0.21518702        2       1.00000000       0.00165036      -0.02574356      -0.13983655
Ni       5.09157290      -0.00690484       0.22083667        2       1.00000000      -0.06824950      -0.03727386      -0.27177436
Ni       7.55123048      -0.04154005       0.18620551        2       1.00000000      -0.03311842      -0.00510134      -0.41044203
Ni       1.26432440       2.18774482       0.13080729        1       1.00000000      -0.00918964      -0.00765703       0.27876163
Pt       3.78384206       2.19041296       0.19443524        2       0.00000000      -0.02859368       0.01005228      -0.55227423
Ni       6.31774683       2.18537555       0.11559263        1       1.00000000      -0.02274992      -0.04027775       0.17288477
Pt       8.85335225       2.22851405       0.00000000        0       0.00000000       0.00889602      -0.03266040      -0.21309510
Ni       2.50508838       4.38508480       0.10921625        1       1.00000000       0.04708458      -0.02209400       0.33288052
Ni       5.07280722       4.38164548       0.10103794        1       1.00000000      -0.13326204      -0.00502537       0.25271018
Ni       7.53711271       4.35489140       0.09473417        1       1.00000000       0.03856458       0.05660617       0.12872409
Ni      10.17622057       4.35870981       0.08401865        1       1.00000000       0.01628678       0.05258297       0.27563626
Ni       3.76767364       6.49421051       0.06923530        1       1.00000000      -0.08604453      -0.01901727       0.14845637
Ni       6.31153270       6.49912957       0.04758308        0       1.00000000       0.10798906      -0.00670022       0.04033221
Pt       8.86228367       6.51132485       0.15248044        2       0.00000000       0.01490988       0.04386925      -0.42660553
Ni      11.42224554       6.51483662       0.07850443        1       1.00000000      -0.07236186       0.00114094       0.28210876
Ni       1.30316061       0.75900140       2.20753855        4       1.00000000       0.00683831       0.11307539       0.14270623
Ni       3.75810433       0.67401486       2.19451027        4       1.00000000      -0.10472127      -0.08998460       0.05807176
Ni       6.29911663       0.71192897       2.14674257        3       1.00000000      -0.01233090       0.04217445       0.06663658
Pt       8.83507729       0.77872262       2.18978577        4       0.00000000       0.06908633       0.12244116      -0.02232535
Ni       2.48618666       2.92242018       2.23633670        4       1.00000000      -0.02049294       0.01585674       0.08902063
Ni       5.07441851       2.93916082       2.17456425        4       1.00000000      -0.04658995       0.05605070      -0.05348006
Ni       7.56729355       2.94281441       2.16345445        4       1.00000000       0.08199818       0.00826296       0.03488679
Ni      10.16057861       2.95016089       2.18708468        4       1.00000000       0.02391842       0.05527123       0.12310084
Ni       3.75499649       5.02702329       2.16392727        4       1.00000000      -0.09259531      -0.07290235       0.03401730
Ni       6.35558926       5.04136149       2.12434576        3       1.00000000       0.11630427      -0.00084604      -0.01019757
Ni       8.86534608       5.04065678       2.20636274        4       1.00000000       0.07965147      -0.02200253       0.02927654
Ni      11.38210937       5.06865370       2.14771276        3       1.00000000      -0.04719860      -0.00755795       0.08422487
Pt       5.10457162       7.16321732       2.12796257        3       0.00000000      -0.02291650      -0.07096951      -0.09548470
Ni       7.61225599       7.24997151       2.20570448        4       1.00000000       0.06427173      -0.04906967       0.10409756
Ni      10.14705241       7.23963996       2.19738559        4       1.00000000      -0.00989740      -0.09034035       0.13047592
Ni      12.59080454       7.19065606       2.11075835        3       1.00000000      -0.02509390      -0.11242024       0.07866587
Ni       0.02401748       1.49825862       4.30339845        6       1.00000000       0.08632406       0.00499666      -0.07004954
Ni       2.45783986       1.46176165       4.23526483        5       1.00000000      -0.00866963      -0.00682613      -0.10172577
Pt       5.04118256       1.40757743       4.18197098        5       0.00000000      -0.04118074      -0.12571620       0.07041915
Ni       7.59924410       1.47343226       4.28770845        6       1.00000000       0.03251060      -0.02792196      -0.07533151
Ni       1.25043000       3.62421758       4.29098825        6       1.00000000       0.04643301      -0.01110908      -0.15333213
Ni       3.72987845       3.68565862       4.22879867        5       1.00000000      -0.03767405      -0.00614247      -0.13276725
Pt       6.34789792       3.67057613       4.27199889        6       0.00000000       0.03162659       0.03781886       0.06485641
Ni       8.89968002       3.64048359       4.25883711        6       1.00000000       0.06557241       0.13073415      -0.18565638
Ni       2.48357788       5.73314639       4.28015099        6       1.00000000      -0.09704020      -0.06782886      -0.18553629
Ni       5.04099857       5.76801777       4.30405238        6       1.00000000      -0.00318952      -0.02352388      -0.08934329
Ni       7.58101505       5.80913035       4.19508581        5       1.00000000       0.07808446       0.05680473      -0.16555347
Ni      10.14942197       5.75210594       4.19727438        5       1.00000000       0.02780140      -0.05428577      -0.12573709
Pt       3.75858478       7.89629531       4.25198781        6       0.00000000      -0.06490893       0.02247933       0.19265353
Ni       6.35275578       7.94589725       4.22437315        5       1.00000000       0.08327211       0.04023175      -0.08174412
Ni       8.83076744       7.92459619       4.18102620        5       1.00000000       0.02742916      -0.00282221      -0.16105089
Ni      11.35326661       7.88971689       4.19346669        5       1.00000000      -0.11486283      -0.10617010      -0.09606728
Pt      -0.01054871       0.00086746       6.45680540       10       0.00000000       0.04183535       0.12447490       0.36268947
Pt       2.50128944      -0.01590463       6.39321746        9       0.00000000       0.00076410       0.02376110       0.17475189
Pt       5.05941622      -0.03690818       6.43917592        9       0.00000000      -0.00702752      -0.06810524       0.37965217
Pt       7.57524623      -0.00521087       6.44287872        9       0.00000000      -0.03132237       0.07470170       0.41024523
Ni       1.20932816       2.23540233       6.37375716        9       1.00000000       0.06339183      -0.01408280      -0.18543805
Pt       3.75474142       2.29967314       6.33158078        8       0.00000000      -0.10561737       0.12138726       0.65367157
Ni       6.34245507       2.22206001       6.39525562        9       1.00000000      -0.02919631      -0.03390596       0.00985915
Ni       8.85080821       2.23616742       6.24054972        7       1.00000000       0.00785277      -0.01438406       0.32939032
Ni       2.47618011       4.39341888       6.36627906        9       1.00000000       0.03176549      -0.06826680      -0.29287764
Ni       5.05997883       4.39933628       6.38713800        9       1.00000000      -0.06774436      -0.03016161      -0.14953121
Ni       7.56597691       4.29621344       6.38587106        9       1.00000000       0.10424802      -0.01515338      -0.11202701
Ni      10.14793441       4.28745729       6.33411876        8       1.00000000      -0.01959554       0.01652541      -0.30526603
Ni       3.77889378       6.42914946       6.37894524        9       1.00000000      -0.03589628       0.01421971      -0.11028856
Ni       6.27860794       6.44275005       6.34210791        8       1.00000000       0.07346572       0.03531737      -0.18392419
Pt       8.84763133       6.37451129       6.26618445        8       0.00000000       0.02889078      -0.06617720       0.45082066
Ni      11.41148331       6.43313612       6.32957587        8       1.00000000      -0.04867276       0.07197139      -0.25906149
