64
Lattice="10.162720703288924 0.009768240636758269 0.0009870543701196318 5.089819896186234 8.75230866692133 -0.050615303001239564 0.0 0.0 21.45155197825" Properties=species:S:1:pos:R:3:tags:I:1:initial_magmoms:R:1:forces:R:3 unique_id=c4c36e227fdb495681f278249a4d3cdf stress="0.0020906819780217127 -7.993512402083954e-05 4.397852506140197e-05 -7.993512402083954e-05 0.0015065797148900734 -0.0002228522885304752 4.397852506140197e-05 -0.0002228522885304752 -0.005071181969171059" energy=-368.92038701388293 pbc="T T T"
Ni       0.04327267      -0.05655736       0.14433821        1       1.00000000       0.08221128      -0.03336287      -0.46850471
Ni       2.49392475      -0.03334051       0.14032371        1       1.00000000       0.05506809      -0.00971064      -0.17398123
Pt       5.10245879      -0.02979843       0.10442808        1       0.00000000      -0.11589715       0.16788834      -1.06259535
Ni       7.63593952      -0.04809126       0.12485199        1       1.00000000      -0.06054136      -0.09388377      -0.51451194
Ni       1.26677066       2.20090473       0.06253568        1       1.00000000      -0.03493807       0.02560177       0.24568800
Pt       3.77168026       2.25813863       0.13062497        1       0.00000000       0.02125723      -0.04803209      -0.72139903
Ni       6.35853865       2.24236610       0.05589838        1       1.00000000      -0.04989445       0.00043388       0.11855489
Pt       8.89680788       2.25632300       0.07690154        1       0.00000000       0.02896248       0.17591600      -0.99013562
Ni       2.52097309       4.41826634       0.02795799        0       1.00000000       0.04803286       0.01171944       0.38940548
Ni       5.10774392       4.42578571       0.03147864        0       1.00000000      -0.09539508       0.02867813       0.28087002
Ni       7.59064616       4.42149396       0.03780157        0       1.00000000       0.05998799       0.00580405       0.20340082
Ni      10.19936276       4.41806231       0.03432893        0       1.00000000      -0.02928314       0.00512307       0.32500949
Ni       3.82772431       6.53552728       0.01933936        0       1.00000000       0.03181745      -0.00375618       0.31299988
Ni       6.34686580       6.54874503       0.02611681        0       1.00000000      -0.00709625       0.03804604       0.25539781
Ni       8.85831353       6.50973973       0.11025987        1       1.00000000      -0.07959219      -0.00615200      -0.35280898
Ni      11.47642716       6.51154066       0.00000000        0       1.00000000       0.02386499       0.04376951       0.25053652
Ni       1.31708729       0.71797761       2.10552054        3       1.00000000      -0.02003483       0.09200168       0.09705584
Ni       3.73957542       0.71302830       2.13744014        3       1.00000000      -0.13704958      -0.09721729       0.17346499
Ni       6.37100451       0.75390865       2.12158384        3       1.00000000       0.02529659       0.06377243       0.08279194
Pt       8.88352958       0.69878300       2.11664393        3       0.00000000       0.05730679      -0.14332958       0.16339883
Ni       2.51096025       2.94136233       2.17682693        4       1.00000000       0.00091884       0.02568657       0.11647666
Ni       5.09120166       2.96767376       2.09972806        3       1.00000000       0.02152830       0.08248422       0.04602116
Ni       7.59946027       2.95793656       2.12649620        3       1.00000000      -0.04067942       0.01512354       0.10824848
Ni      10.21558034       2.97996528       2.12043518        3       1.00000000       0.08827025       0.04209786       0.09695482
Ni       3.81206314       5.08711848       2.09277167        3       1.00000000      -0.01515886      -0.05294443       0.04419075
Ni       6.33715576       5.11051691       2.04235303        2       1.00000000      -0.00535429       0.00694017       0.02950733
Ni       8.89195947       5.04175991       2.06850270        3       1.00000000       0.01793336      -0.11368157       0.01624295
Ni      11.47130216       5.05855628       2.10628994        3       1.00000000       0.04963669      -0.04199116       0.13469907
Ni       5.12304819       7.21602654       2.05507072        3       1.00000000      -0.03896144      -0.07464383       0.09165483
Ni       7.58285663       7.28989579       2.05744919        3       1.00000000      -0.04964187      -0.00420251       0.05493957
Pt      10.17400477       7.21323164       2.15986741        4       0.00000000       0.02084037      -0.16654377       0.16558337
Ni      12.71575547       7.20386953       2.04882263        2       1.00000000       0.03711795      -0.13203028       0.08156997
Pt       0.09094295       1.49460402       4.19955778        6       0.00000000       0.10508986      -0.07094568      -0.01161404
Ni       2.55117028       1.46103497       4.18071782        6       1.00000000       0.04264457      -0.00559343      -0.21421752
Pt       5.06195796       1.41660629       4.11868433        5       0.00000000       0.06824389      -0.03511054      -0.19377912
Ni       7.61332921       1.43550799       4.22426156        6       1.00000000      -0.02900619      -0.09019375      -0.20651004
Ni       1.30926102       3.67662658       4.22895765        6       1.00000000       0.07430409      -0.00629951      -0.10529033
Ni       3.75773407       3.69887757       4.17486224        6       1.00000000      -0.01883283       0.06006060      -0.18241580
Pt       6.34471990       3.64020148       4.22598430        6       0.00000000       0.02147859      -0.02052614      -0.01220069
Ni       8.94219290       3.68856771       4.17409494        6       1.00000000       0.07009340       0.07665869      -0.21891441
Ni       2.52163997       5.75193000       4.21325179        6       1.00000000      -0.02514271      -0.02007371      -0.17660567
Ni       5.05603496       5.78047778       4.21384863        6       1.00000000       0.03654156      -0.04065829      -0.16215970
Pt       7.63725443       5.85714898       4.14299955        5       0.00000000       0.00580194       0.02707656      -0.00656152
Ni      10.22910897       5.77161326       4.23250107        6       1.00000000       0.02039318       0.01199697      -0.03811078
Pt       3.80964434       7.88143214       4.16407119        6       0.00000000       0.06349820       0.02345345      -0.01998591
Ni       6.37560298       7.99786461       4.13638447        5       1.00000000       0.01513555       0.03677620      -0.21506676
Ni       8.87127498       8.00295902       4.16553740        6       1.00000000      -0.10114332       0.08155845      -0.21982710
Ni      11.45098388       7.93312357       4.17889404        6       1.00000000       0.03287418      -0.11965405      -0.12639879
Pt       0.00874486      -0.09461681       6.45155198        9       0.00000000      -0.20518495       0.10169871       0.34641458
Pt       2.52146345      -0.02958247       6.36959430        8       0.00000000       0.26505983       0.04502616       0.15304369
Pt       5.09677289      -0.04340155       6.28242918        7       0.00000000      -0.21438051      -0.13468799       1.09746675
Pt       7.61064602      -0.07200823       6.41863821        8       0.00000000       0.10120848       0.16965580       0.38788872
Ni       1.27552371       2.23205850       6.35916963        8       1.00000000       0.03672175       0.04534872      -0.02459789
Pt       3.79034480       2.30884604       6.28747299        7       0.00000000      -0.14163594      -0.03408939       0.63293486
Ni       6.34309320       2.21477878       6.36880847        8       1.00000000       0.01273049       0.00006372       0.04468087
Pt       8.87573561       2.28725348       6.27148884        7       0.00000000      -0.15791142      -0.11973523       1.04733952
Ni       2.51670421       4.40960504       6.31729164        7       1.00000000       0.07029572      -0.05100556      -0.29826559
Ni       5.08793488       4.41449097       6.35491479        8       1.00000000      -0.09231717       0.02680053      -0.17583830
Ni       7.56056452       4.36428368       6.37096683        8       1.00000000      -0.04853530      -0.02527687      -0.06442405
Ni      10.25152936       4.35202866       6.32357728        7       1.00000000       0.03978916      -0.02023532      -0.22308065
Ni       3.81029720       6.43320480       6.33880660        7       1.00000000       0.01062804      -0.00953778      -0.20472155
Ni       6.32389627       6.46985334       6.34151901        7       1.00000000      -0.02704034       0.05319582      -0.20138660
Pt       8.92547850       6.41230739       6.40243863        8       0.00000000       0.09850379       0.15760023       0.16145517
Ni      11.48401915       6.46422558       6.30941555        7       1.00000000      -0.02043909       0.07704789      -0.16997795
