64
Lattice="10.267618392786755 -0.01866448377327346 0.03870889718891361 5.1176452792971965 8.808595931489439 -0.011842107454880608 0.03160568220623087 -0.029412395109537047 8.776200091386425" Properties=species:S:1:pos:R:3:tags:I:1:initial_magmoms:R:1:forces:R:3 unique_id=0d5009991bf24ea5af918014e1419837 stress="0.00019952624729976942 5.319699551726911e-06 -1.9821961587690342e-05 5.319699551726911e-06 0.00020426605315682078 2.5691554919128554e-06 -1.9821961587690342e-05 2.5691554919128554e-06 0.0002042551834196965" energy=-395.1149939163428 pbc="T T T"
Ni       0.02016329      -0.01427499       0.18008034        4       1.00000000       0.04691667      -0.03554342       0.32153593
Ni       2.53501375      -0.00391743       0.21918544        4       1.00000000      -0.03262718       0.00284249       0.40694143
Pt       5.13566702      -0.04536570       0.16284851        4       0.00000000       0.01268009      -0.09961151       0.31786728
Ni       7.72767990      -0.06577250       0.21475752        4       1.00000000       0.04747398      -0.02738589       0.34426132
Ni       1.28296740       2.20906049       0.10720697        4       1.00000000       0.02297712       0.05176261       0.24427013
Pt       3.77479601       2.25374738       0.19435262        4       0.00000000      -0.03972973       0.08524709       0.19222600
Pt       6.43266391       2.25825211       0.12863222        4       0.00000000       0.06664006       0.16286217       0.00820268
Pt       9.05459487       2.23600133       0.15311551        4       0.00000000       0.10319314       0.04112968       0.12533805
Ni       2.55286013       4.43821389       0.06251717        4       1.00000000       0.04302261       0.09038804       0.01177299
Ni       5.10492394       4.43381885       0.11206766        4       1.00000000      -0.08430758       0.08984560       0.24655742
Ni       7.71771660       4.42610600       0.12551248        4       1.00000000       0.09047016       0.07991597       0.24712346
Ni      10.28372598       4.41955025       0.10222403        4       1.00000000       0.09778200       0.13029664       0.10347198
Ni       3.81134821       6.59220768       0.09884982        4       1.00000000      -0.01088280      -0.04134403       0.18252658
Pt       6.39694446       6.58777631       0.18173688        4       0.00000000      -0.02558863      -0.02177744       0.04815081
Ni       8.96889234       6.54363775       0.17416734        4       1.00000000      -0.06344787      -0.12141075       0.21369817
Ni      11.57958573       6.55292256       0.09403459        4       1.00000000       0.11195689      -0.03943625       0.03413316
Ni       1.30028945       0.72260726       2.19129418        3       1.00000000      -0.05015869      -0.01146198       0.03279327
Ni       3.83370951       0.74326509       2.23780601        3       1.00000000       0.07075411      -0.00103394       0.00660767
Ni       6.42515179       0.76195244       2.26429120        3       1.00000000      -0.06308041       0.12410758       0.06638015
Pt       9.00486029       0.71173350       2.27090514        3       0.00000000      -0.01076069       0.15796315      -0.02759794
Ni       2.55739821       2.93503190       2.23672706        3       1.00000000       0.03816458       0.05751732      -0.00793933
Ni       5.12684458       2.95282190       2.26238044        3       1.00000000      -0.10479833       0.05871572       0.05529028
Ni       7.70516121       2.96378459       2.26539395        3       1.00000000       0.10013602       0.02761016       0.01077106
Ni      10.28840769       2.91896448       2.28443747        3       1.00000000       0.01857369      -0.03798195       0.14890624
Ni       3.88511664       5.12333069       2.20637418        3       1.00000000       0.10381166      -0.03163955       0.02561773
Ni       6.41412770       5.11214891       2.23740147        3       1.00000000      -0.01806465       0.01838741      -0.01799085
Ni       8.93729631       5.07658032       2.22962370        3       1.00000000      -0.08081497      -0.17919073       0.06832916
Pt      11.59204209       5.04956433       2.24075053        3       0.00000000       0.11768367      -0.09320193       0.05555547
Ni       5.13846973       7.29637075       2.21871828        3       1.00000000       0.06199364      -0.16002476       0.00379864
Ni       7.65341391       7.31813696       2.22520889        3       1.00000000      -0.16139023      -0.11370145       0.03799216
Pt      10.23941004       7.25099755       2.21290059        3       0.00000000      -0.06672038      -0.06299787      -0.18242521
Ni      12.86521896       7.27954594       2.18196568        3       1.00000000       0.11328638      -0.19057789      -0.03951004
Ni       0.01710031       1.50294342       4.32330836        2       1.00000000      -0.05649532       0.09623972      -0.08659364
Pt       2.51677897       1.52626526       4.26609776        2       0.00000000      -0.00269355       0.04516726       0.13652869
Ni       5.15994373       1.47895693       4.32294454        2       1.00000000      -0.08139954       0.02966857      -0.19752111
Ni       7.71061397       1.47167242       4.36112393        2       1.00000000       0.00282458       0.01649491      -0.08587704
Ni       1.26833164       3.69028739       4.38091671        2       1.00000000      -0.04807057       0.02857225       0.01079069
Ni       3.84833345       3.72338019       4.32061138        2       1.00000000      -0.06987100       0.09010070      -0.22129929
Pt       6.42555773       3.66631311       4.34472972        2       0.00000000      -0.01239532      -0.01551647      -0.00944781
Ni       9.01979936       3.68184065       4.32877128        2       1.00000000       0.03043839       0.06414208      -0.25957156
Ni       2.58493320       5.79037368       4.37929126        2       1.00000000       0.01032101      -0.11409350      -0.08741122
Ni       5.11411671       5.81574681       4.31163935        2       1.00000000       0.01135649      -0.13620765      -0.23585935
Ni       7.70728952       5.80996130       4.31031897        2       1.00000000       0.01841346      -0.05751449      -0.22783319
Ni      10.28629367       5.76511740       4.38772384        2       1.00000000       0.01780792      -0.08435138      -0.05478338
Pt       3.91585758       7.98838930       4.30662508        2       0.00000000       0.04284543      -0.13070523       0.21185935
Ni       6.40812385       8.02897169       4.29155518        2       1.00000000      -0.05242359      -0.06954406      -0.16828047
Pt       8.90967968       8.01642852       4.30225227        2       0.00000000      -0.02284746      -0.02108468       0.10673058
Pt      11.58811620       8.01310648       4.30496023        2       0.00000000       0.00499500      -0.03551255       0.05581071
Pt       0.02227308       0.00029049       6.53983437        1       0.00000000       0.03289975       0.07010863       0.11239848
Pt       2.56974128       0.00325156       6.57360279        1       0.00000000      -0.05030929       0.05132932       0.23515951
Pt       5.16600020      -0.00228820       6.47049541        1       0.00000000       0.06781166       0.05598040      -0.41573708
Pt       7.72271512      -0.07087408       6.59493691        1       0.00000000      -0.09318788      -0.06046575       0.14974567
Ni       1.29464314       2.26116742       6.49102524        1       1.00000000       0.01801002       0.18380579      -0.14803083
Pt       3.86764334       2.31512133       6.44271140        1       0.00000000      -0.09971586       0.16737339      -0.24671772
Ni       6.44202593       2.22215572       6.43959649        1       1.00000000      -0.00866220       0.03636886      -0.22748444
Pt       9.00821259       2.27810177       6.41334319        1       0.00000000      -0.01194740       0.12124084      -0.35700616
Ni       2.55017324       4.43528398       6.47268412        1       1.00000000      -0.07294124       0.07964537      -0.22366471
Ni       5.12591464       4.38988322       6.50034367        1       1.00000000      -0.10390378       0.09221450      -0.14831395
Ni       7.69137289       4.34954851       6.50942192        1       1.00000000      -0.12421106      -0.03147328      -0.13667586
Ni      10.34964153       4.36615232       6.50147503        1       1.00000000       0.23108996      -0.00559364      -0.21289372
Ni       3.81970101       6.50633118       6.49077754        1       1.00000000      -0.06816565      -0.18111941      -0.12078756
Pt       6.37641794       6.48378079       6.40985811        1       0.00000000      -0.04991991       0.02226898      -0.30641693
Pt       9.04550286       6.44218802       6.53440225        1       0.00000000       0.04807641      -0.14778463       0.07235266
Ni      11.59613557       6.49819183       6.52139055        1       1.00000000       0.03712621      -0.07002512      -0.19782522
