64
Lattice="10.243926354583433 -0.009776833534286303 0.021917763970897126 5.113496191082458 8.777390803846835 -0.03139277571889278 0.017895779343818516 -0.039929525809641875 8.730000975876624" Properties=species:S:1:pos:R:3:tags:I:1:initial_magmoms:R:1:forces:R:3 unique_id=076e941ef6bb4992a62a4b992e9c0e59 stress="-7.891830857046506e-05 1.799192691824144e-06 -1.088434271083848e-05 1.799192691824144e-06 -6.643702155011838e-05 1.8874066818649395e-05 -1.088434271083848e-05 1.8874066818649395e-05 -2.838266520199112e-05" energy=-392.7402603872265 pbc="T T T"
Ni       0.03714133      -0.04557133       0.18487848        4       1.00000000       0.12455561      -0.12362901       0.32801064
Ni       2.50888138      -0.03234921       0.21087078        4       1.00000000      -0.08103659      -0.06618222       0.38662103
Pt       5.11547916      -0.04225461       0.15446742        4       0.00000000      -0.03754239      -0.10447869       0.36726020
Ni       7.70888970      -0.06139816       0.20270831        4       1.00000000       0.04930236      -0.03624050       0.35950651
Ni       1.27939466       2.19714960       0.10387026        4       1.00000000       0.02077062       0.00801388       0.26531913
Pt       3.76136121       2.24919937       0.17646036        4       0.00000000      -0.08475738       0.12173273       0.17860497
Pt       6.41605532       2.26095335       0.11173494        4       0.00000000       0.04655853       0.19007148      -0.00827052
Pt       9.03365456       2.23570812       0.13420509        4       0.00000000       0.08831155       0.03833607       0.14160702
Ni       2.55146789       4.42614130       0.04972157        4       1.00000000       0.06856703       0.10242992      -0.00185101
Ni       5.11745998       4.45793101       0.09946365        4       1.00000000       0.00487740       0.20871786       0.21317011
Ni       7.67907413       4.44781807       0.10897351        4       1.00000000      -0.01476939       0.15673626       0.22394463
Ni      10.25955173       4.41322156       0.07817885        4       1.00000000       0.06884599       0.15267680       0.09505531
Ni       3.84251805       6.56859656       0.08631844        4       1.00000000       0.08744539      -0.02855900       0.16332417
Ni       6.38967941       6.57071042       0.17325466        4       1.00000000      -0.02923508      -0.03740221       0.15526533
Ni       8.91625683       6.52571422       0.15290863        4       1.00000000      -0.18797071      -0.09228162       0.18012818
Ni      11.55764644       6.53508016       0.06551726        4       1.00000000       0.11300541      -0.04417851       0.03340301
Ni       1.31413696       0.72438035       2.21088721        3       1.00000000       0.02808126       0.01812780       0.16900048
Ni       3.80036570       0.75501145       2.23842847        3       1.00000000      -0.03005493       0.07493843       0.01888630
Ni       6.40728069       0.76262382       2.24231420        3       1.00000000      -0.06582466       0.12567769       0.04814844
Pt       8.99074177       0.71116788       2.24422188        3       0.00000000       0.05511973       0.15970780      -0.03850709
Ni       2.55097178       2.89308353       2.26144711        3       1.00000000       0.03503731      -0.10733163       0.17930296
Ni       5.10856343       2.94319925       2.23823201        3       1.00000000      -0.12089866       0.07977204      -0.00247716
Ni       7.68731066       2.95993226       2.23875905        3       1.00000000       0.09594358       0.03853549      -0.01260046
Ni      10.27123901       2.91008999       2.25795084        3       1.00000000       0.03887737      -0.06311425       0.14363953
Ni       3.88224651       5.10450373       2.17886795        3       1.00000000       0.10853141      -0.04038708       0.03521499
Ni       6.39966368       5.12143520       2.16808235        3       1.00000000      -0.02102451      -0.00854904       0.01212994
Ni       8.91104113       5.06380634       2.19464124        3       1.00000000      -0.10348742      -0.17588605       0.07884472
Pt      11.56944477       5.03064250       2.20741469        3       0.00000000       0.14948742      -0.14577001       0.05929878
Ni       5.15594892       7.25570984       2.14635550        3       1.00000000       0.03567390      -0.14409889       0.03320212
Ni       7.61197545       7.28184856       2.15186253        3       1.00000000      -0.14443567      -0.10803793       0.06422430
Pt      10.20482239       7.22645896       2.17826508        3       0.00000000      -0.10132424      -0.08230757      -0.23105272
Ni      12.84001591       7.25647056       2.13738581        3       1.00000000       0.12344176      -0.20516810      -0.05898887
Ni       0.06545823       1.49068207       4.29766612        2       1.00000000       0.12843832       0.05639181      -0.07863784
Ni       2.52420879       1.49613807       4.27492853        2       1.00000000      -0.05383281       0.09867090      -0.09593209
Ni       5.11709575       1.47819616       4.27901876        2       1.00000000      -0.12170399       0.05770152      -0.22596516
Ni       7.68810323       1.46681150       4.32018686        2       1.00000000       0.02171006       0.01785392      -0.09373452
Ni       1.28969560       3.62726959       4.34738082        2       1.00000000       0.03002796      -0.03948232      -0.02078151
Ni       3.81496975       3.67731616       4.27267107        2       1.00000000      -0.06701141       0.06106076      -0.25657825
Pt       6.40309801       3.65409719       4.30551764        2       0.00000000      -0.01191730       0.02048391      -0.05607262
Ni       8.99897222       3.67078677       4.28356527        2       1.00000000       0.05182816       0.06443976      -0.25350955
Ni       2.57884569       5.75934008       4.34394357        2       1.00000000       0.02964673      -0.13984095      -0.09503243
Ni       5.11030932       5.79389039       4.28680692        2       1.00000000       0.02386693      -0.14635540      -0.21382384
Ni       7.68015069       5.80085796       4.27762823        2       1.00000000      -0.01328013      -0.00023386      -0.21272547
Ni      10.25945286       5.74487876       4.34127180        2       1.00000000       0.03690413      -0.12863944      -0.05442264
Pt       3.91216123       7.95285481       4.26424864        2       0.00000000       0.06595561      -0.15008708       0.16589360
Ni       6.39752017       8.01722628       4.24721839        2       1.00000000      -0.06057136      -0.04792324      -0.16438508
Pt       8.86619716       8.03202081       4.24095811        2       0.00000000      -0.08001849       0.02366667       0.08848204
Pt      11.55626823       7.98646807       4.25171884        2       0.00000000       0.01777048      -0.03834923       0.04144627
Pt       0.01498664      -0.00690904       6.50968174        1       0.00000000       0.02399134       0.06869750       0.14250678
Pt       2.55029829       0.00987928       6.51292642        1       0.00000000      -0.07327527       0.04483872       0.21783183
Pt       5.14321915      -0.00384173       6.42502894        1       0.00000000       0.05937957       0.07849287      -0.44989366
Pt       7.69823560      -0.07114856       6.54827752        1       0.00000000      -0.10746540      -0.05112349       0.13917748
Ni       1.28970635       2.24405344       6.42830643        1       1.00000000       0.02508820       0.16320837      -0.20123134
Pt       3.83252068       2.29406302       6.36073340        1       0.00000000      -0.10624894       0.17258220      -0.29408119
Ni       6.41518480       2.21015184       6.38764823        1       1.00000000      -0.02739808       0.04383201      -0.26693206
Pt       8.98440283       2.26813264       6.35621273        1       0.00000000       0.00224443       0.13191164      -0.41628158
Ni       2.53865517       4.40843945       6.42309093        1       1.00000000      -0.07182700       0.08479876      -0.23831481
Ni       5.10542724       4.36425244       6.45358595        1       1.00000000      -0.12318742       0.06466925      -0.14124210
Ni       7.66835158       4.33061685       6.46062912        1       1.00000000      -0.11993003      -0.02653965      -0.12670902
Ni      10.32432712       4.34889572       6.44232781        1       1.00000000       0.24718991      -0.00034195      -0.23732373
Ni       3.81054233       6.47269151       6.44721466        1       1.00000000      -0.06405017      -0.18194319      -0.10111410
Pt       6.35917171       6.45360805       6.45382940        1       0.00000000      -0.05963036       0.01889380       0.06215470
Pt       9.01760820       6.42308746       6.47569452        1       0.00000000       0.04236330      -0.12709281       0.06276398
Ni      11.56619940       6.47216817       6.45848650        1       1.00000000       0.03487108      -0.05611372      -0.20489708
