64
Lattice="10.306180686652725 0.009028077041157639 0.007321583380510781 5.160908887391328 8.892740361459602 0.007907830507514084 0.0 0.0 21.53284727374956" Properties=species:S:1:pos:R:3:tags:I:1:initial_magmoms:R:1:forces:R:3 unique_id=5b247d7dcf014fcd802aead0d3afbe8a energy=-374.55486205832426 stress="0.005276631128472791 0.0002648688565493908 0.00014108283885997527 0.0002648688565493908 0.005587617141895574 6.0793413086981355e-05 0.00014108283885997527 6.0793413086981355e-05 -0.001937499704482237" pbc="T T T"
Ni       0.00321240       0.02323361       0.10573747        1       1.00000000       0.10397828      -0.02702040      -0.21305860
Ni       2.57501385       0.01038839       0.14010264        1       1.00000000      -0.01313294       0.03310046      -0.14571378
Ni       5.15161600      -0.00310417       0.09161861        1       1.00000000      -0.01750426       0.20897577      -0.37911336
Ni       7.73556321      -0.03600556       0.11419798        1       1.00000000      -0.09134741      -0.13391461      -0.23705003
Ni       1.25996026       2.23164678       0.03434377        0       1.00000000      -0.05097574       0.02757340       0.44197260
Pt       3.80797799       2.24124395       0.12080888        1       0.00000000       0.00483222       0.01033930      -0.51776322
Pt       6.47003982       2.18199943       0.04553551        0       0.00000000       0.01151682      -0.03940001      -0.00705076
Ni       9.06595660       2.23400349       0.07567792        1       1.00000000       0.06376944       0.13145815      -0.08860639
Ni       2.57637805       4.47446427       0.00304952        0       1.00000000       0.07396172      -0.01984990       0.26428475
Ni       5.12837440       4.46973173       0.12694504        1       1.00000000      -0.00653587       0.00735426      -0.04920772
Pt       7.80977350       4.46276729       0.03803885        0       0.00000000       0.02539850       0.01906303       0.00095143
Ni      10.34438598       4.44951649       0.01139630        0       1.00000000       0.06328943      -0.07345954       0.27886482
Ni       3.83494632       6.66861296       0.04260949        0       1.00000000      -0.02456642       0.00817731       0.40518127
Pt       6.42028664       6.71861431       0.13007095        1       0.00000000      -0.03757504       0.03009156      -0.62090689
Ni       9.04791510       6.68873062       0.01177695        0       1.00000000      -0.10946163      -0.02558945       0.09278104
Ni      11.62468232       6.67411103       0.00000000        0       1.00000000       0.11662417       0.01795589       0.20363304
Ni       1.30093391       0.77110653       2.08217726        3       1.00000000       0.00882465       0.16523174      -0.05695329
Ni       3.85835091       0.75859310       2.13788849        3       1.00000000       0.04981778       0.03503541       0.17181540
Ni       6.43422522       0.77652917       2.15498113        4       1.00000000      -0.05423006       0.18716009       0.23954150
Pt       9.02575328       0.79416237       2.10883877        3       0.00000000      -0.02277268       0.14739507       0.12932325
Ni       2.57129384       2.97384768       2.14674964        3       1.00000000      -0.00347414       0.07602602       0.01913154
Ni       5.14916425       2.97843878       2.17223883        4       1.00000000      -0.05572195      -0.00675260       0.21380124
Ni       7.74873090       2.98485427       2.16633253        4       1.00000000       0.06378013       0.07114139       0.17407159
Ni      10.31322082       2.97103144       2.14137241        3       1.00000000       0.05061774       0.03214938       0.08614080
Ni       3.88139205       5.17482884       2.10682108        3       1.00000000       0.00741367      -0.10585055      -0.07985339
Ni       6.45225623       5.17376096       2.14704547        3       1.00000000       0.09673788      -0.09676020       0.07197886
Ni       9.00387315       5.17090077       2.16642661        4       1.00000000      -0.02922234      -0.13888512       0.20510277
Pt      11.64268924       5.13773267       2.10780090        3       0.00000000       0.02335868      -0.05070052       0.03745917
Ni       5.12814203       7.40194201       2.11969424        3       1.00000000      -0.19025554      -0.04577309      -0.02673791
Ni       7.73820465       7.41050809       2.13370200        3       1.00000000       0.04647467      -0.08169004       0.07803783
Pt      10.29877269       7.42122819       2.04588278        2       0.00000000       0.02848437      -0.13370361      -0.10145543
Ni      12.91747739       7.39566253       2.09949386        3       1.00000000       0.07052985      -0.08619340      -0.01256971
Ni      -0.01067841       1.55820921       4.27198230        6       1.00000000      -0.05879183       0.12486294      -0.17963430
Pt       2.54347256       1.58739515       4.18724585        5       0.00000000      -0.03647660      -0.01163581      -0.03482014
Ni       5.17319566       1.51571977       4.25823807        6       1.00000000      -0.04819500       0.01388161      -0.30524185
Ni       7.74825488       1.51663458       4.27948111        6       1.00000000       0.08566041      -0.08683400      -0.23163851
Ni       1.29044037       3.70349874       4.31998092        6       1.00000000      -0.01805020      -0.01911914      -0.05047846
Ni       3.83870130       3.73015493       4.24575875        5       1.00000000      -0.07956658      -0.02755148      -0.31089398
Pt       6.49756674       3.65532102       4.23679000        5       0.00000000      -0.03674221      -0.00635892      -0.04853138
Ni       9.03822589       3.69230898       4.26339222        6       1.00000000       0.05871321      -0.13701879      -0.35812692
Ni       2.57313461       5.87351167       4.32315390        6       1.00000000      -0.02417167      -0.13560896      -0.05463378
Pt       5.11181735       5.86872253       4.19217051        5       0.00000000      -0.02679320      -0.09791488      -0.14147688
Ni       7.76096665       5.88322857       4.26940134        6       1.00000000      -0.02472701      -0.09659098      -0.32683266
Pt      10.31192003       5.82994820       4.36129499        7       0.00000000       0.03262044      -0.01850551      -0.03764905
Pt       3.85998377       8.15812963       4.25526001        6       0.00000000      -0.03101677       0.01966497       0.03091261
Pt       6.44248175       8.16946368       4.16727839        5       0.00000000      -0.09916958       0.05496371      -0.25074343
Pt       9.01663335       8.15009368       4.25706042        6       0.00000000      -0.10483729       0.05487162      -0.04703238
Pt      11.61754912       8.17184129       4.23424470        5       0.00000000       0.02698021      -0.01028100      -0.08593594
Pt       0.00394717       0.02474767       6.50268676        9       0.00000000      -0.00929847       0.14410215       0.32603773
Pt       2.57820382       0.01111478       6.53284727        9       0.00000000       0.05343617       0.01475534       0.43909065
Pt       5.16763582      -0.03790686       6.50762908        9       0.00000000      -0.03322021       0.13498527       0.47803937
Pt       7.72270053      -0.01778424       6.52574045        9       0.00000000       0.02824099       0.15920413       0.37215117
Ni       1.27709600       2.29726513       6.43541445        8       1.00000000      -0.02722789       0.13798383      -0.26337518
Pt       3.83839293       2.27859092       6.38625678        8       0.00000000       0.09571393       0.02486063       0.56989138
Ni       6.46331026       2.23876539       6.37201535        8       1.00000000      -0.03894920      -0.07934369       0.15822549
Pt       9.03251755       2.33717506       6.42945371        8       0.00000000      -0.01586944      -0.05947875       0.01414775
Ni       2.52742351       4.48062666       6.42641490        8       1.00000000      -0.04194118       0.00000084      -0.34552204
Pt       5.13554664       4.45064793       6.49831287        9       0.00000000      -0.03903114      -0.06853883       0.18117101
Ni       7.77504812       4.46042013       6.36681219        8       1.00000000       0.03520722       0.12768400       0.01510411
Ni      10.34247062       4.46468634       6.46269400        9       1.00000000       0.06142602      -0.04561936      -0.18103041
Ni       3.82221217       6.63281988       6.45791324        9       1.00000000      -0.06094596      -0.05818749      -0.23700999
Pt       6.49907443       6.62108887       6.40838539        8       0.00000000       0.12334352      -0.06109066       0.55205935
Ni       9.06204890       6.60707614       6.46443196        9       1.00000000      -0.00616226      -0.12919679      -0.06671383
Ni      11.61540137       6.61090606       6.46918973        9       1.00000000       0.05720760      -0.00563119      -0.15754191
