64
Lattice="10.587513976238132 0.022682946061241868 0.016772483147352534 5.31340099564077 9.196007279797248 0.008819471001995729 0.013694675143481322 0.0004084526220990096 9.14310982592862" Properties=species:S:1:pos:R:3:tags:I:1:initial_magmoms:R:1:forces:R:3 unique_id=7b62a3bee243482c902c6d3e2db0c0b7 stress="0.006948593782476642 4.762398180674459e-05 9.28973865409229e-07 4.762398180674459e-05 0.0070090572844489635 3.2774123376941066e-06 9.28973865409229e-07 3.2774123376941066e-06 0.0056898599534784475" energy=-416.04735115575943 pbc="T T T"
Pt      -0.02568113      -0.04279928       0.00574895        4       0.00000000       0.00616528      -0.02849332      -0.12278591
Pt       2.62677294      -0.04131073       0.09527496        4       0.00000000       0.01995609      -0.00416965       0.00859203
Pt       5.36216597      -0.04032330       0.09683843        4       0.00000000       0.04026762      -0.06803350      -0.04269118
Ni       7.94386397       0.00464434       0.13894021        4       1.00000000       0.01715820       0.00315896       0.25435987
Pt       1.31271122       2.30868381       0.11289974        4       0.00000000       0.01736709      -0.00626017       0.06611250
Pt       3.98931189       2.32116409       0.01696765        4       0.00000000       0.03754920       0.06234594      -0.09584133
Pt       6.65198547       2.31235148       0.01839153        4       0.00000000      -0.02370809       0.03042464      -0.11766181
Pt       9.25186990       2.32482756       0.03344154        4       0.00000000       0.01270599      -0.00096582      -0.09503707
Pt       2.63987328       4.65666612       0.04371796        4       0.00000000       0.03901023       0.02944167      -0.06696779
Pt       5.38156218       4.67793264       0.13901570        4       0.00000000       0.03584916       0.13276164       0.14551258
Ni       7.95155781       4.62887290       0.14538185        4       1.00000000       0.01505737       0.03189571       0.28283646
Pt      10.58926079       4.63903729       0.06501692        4       0.00000000       0.02497242       0.00360464      -0.06747011
Pt       3.93829628       6.94155574       0.11681713        4       0.00000000      -0.06251935       0.05822227       0.01307863
Ni       6.63904490       6.88572731       0.06943872        4       1.00000000      -0.02378484       0.02061793       0.14142337
Pt       9.24278454       6.86532134       0.02101426        4       0.00000000      -0.08549305      -0.05452860      -0.15446953
Ni      11.93671480       6.91836960       0.15233060        4       1.00000000       0.02921572      -0.03868979       0.21743125
Pt       1.30035955       0.77191268       2.35624881        3       0.00000000       0.02632316      -0.05766213       0.05836499
Pt       3.98921907       0.78253468       2.34438566        3       0.00000000       0.01553825       0.02038924       0.00063455
Pt       6.65707269       0.75248730       2.32693169        3       0.00000000      -0.03538192       0.02920020       0.06700259
Pt       9.26028150       0.75113460       2.33739933        3       0.00000000       0.01549311      -0.03627658       0.03249184
Pt       2.57304348       3.14470483       2.36844046        3       0.00000000      -0.09287159       0.05634423       0.05924573
Pt       5.30453932       3.10295317       2.35786712        3       0.00000000      -0.09822268       0.03592384       0.03864760
Pt       7.97298134       3.11490080       2.30914447        3       0.00000000      -0.00748105      -0.05338677       0.01426710
Ni      10.59808122       3.10532571       2.33818406        3       1.00000000      -0.04502958      -0.01094350       0.11284246
Pt       3.93208230       5.42602157       2.40106455        3       0.00000000      -0.08714387       0.04218642       0.07716381
Ni       6.63176585       5.38463552       2.30679114        3       1.00000000      -0.01001831       0.01846783       0.13660871
Pt       9.30711682       5.34278784       2.32589388        3       0.00000000       0.05730567      -0.03223686       0.08610198
Ni      11.93409072       5.38696081       2.33903009        3       1.00000000       0.00966526      -0.01662224       0.09645644
Pt       5.29749122       7.62611481       2.41777805        3       0.00000000       0.00352310      -0.00301703       0.12011553
Pt       7.92637493       7.61411050       2.33654457        3       0.00000000       0.02814842      -0.05672721       0.03779075
Pt      10.68764297       7.59569845       2.30648913        3       0.00000000       0.02114683      -0.05094838       0.00228497
Ni      13.25348188       7.66279248       2.32506732        3       1.00000000       0.02733249      -0.00871607       0.08291355
Pt       0.00798535       1.47204203       4.58923628        2       0.00000000      -0.00659754      -0.08112654      -0.01014069
Pt       2.67162396       1.55446926       4.58418301        2       0.00000000       0.02526078      -0.02855065       0.01200156
Ni       5.30431573       1.55734527       4.59558408        2       1.00000000       0.01144160       0.04574349      -0.05693910
Pt       7.93528407       1.53810871       4.61794527        2       0.00000000      -0.05064542      -0.02543547       0.00275489
Ni       1.34240361       3.85212759       4.56923475        2       1.00000000      -0.01254024       0.00524694      -0.03273134
Pt       3.92134497       3.89371860       4.61702685        2       0.00000000      -0.05134147       0.09113501       0.04278967
Pt       6.60474953       3.85107281       4.56249583        2       0.00000000      -0.01921553       0.07443597      -0.01327219
Pt       9.34434735       3.83081807       4.60393986        2       0.00000000       0.01935269      -0.05335842       0.01396818
Ni       2.68053687       6.12931566       4.55254757        2       1.00000000       0.02199027       0.04658286      -0.01922605
Ni       5.30080299       6.17248716       4.56107154        2       1.00000000      -0.03031265       0.00830242      -0.01352478
Pt       7.87798167       6.17205079       4.60541360        2       0.00000000      -0.04507240      -0.02705354       0.04187432
Pt      10.67805222       6.08731631       4.58516080        2       0.00000000       0.07995161      -0.03558708      -0.01784338
Ni       4.02573800       8.39317075       4.56121576        2       1.00000000       0.03086714      -0.05334564      -0.05316513
Ni       6.59206755       8.40609960       4.59210165        2       1.00000000      -0.10896331      -0.08973737       0.01350479
Pt       9.29053942       8.42350246       4.57543097        2       0.00000000       0.07598035      -0.07275948      -0.06899002
Pt      12.02104182       8.39747271       4.54264884        2       0.00000000       0.16929583      -0.12576390       0.04816098
Ni       0.01200566      -0.00730672       6.70532267        1       1.00000000      -0.00998621      -0.03004897      -0.24181193
Pt       2.58368385      -0.05086109       6.72289634        1       0.00000000      -0.12180413      -0.08889409      -0.04652754
Pt       5.29815303       0.07125075       6.72142576        1       0.00000000       0.01407190       0.07766846      -0.09399493
Pt       8.00515323       0.05956272       6.83379098        1       0.00000000       0.06045879       0.00844798       0.14041145
Pt       1.30831101       2.37537239       6.72799900        1       0.00000000      -0.02094513       0.11973065       0.00788432
Ni       3.98494377       2.31412605       6.71034797        1       1.00000000      -0.01894971       0.00913485      -0.21986367
Ni       6.63071716       2.31730689       6.72982283        1       1.00000000      -0.02128733       0.05942512      -0.23155420
Ni       9.27731656       2.32079201       6.74193338        1       1.00000000       0.00028554       0.02118805      -0.18505452
Ni       2.65239231       4.59197482       6.72067839        1       1.00000000      -0.05707397       0.06003195      -0.16532541
Pt       5.30636957       4.59141543       6.75489028        1       0.00000000       0.04233393       0.01426763       0.09626450
Pt       7.99973577       4.61976707       6.85139854        1       0.00000000       0.05403619       0.01376063       0.15708139
Ni      10.61258842       4.61497009       6.74775100        1       1.00000000       0.01558186       0.02922751      -0.16391156
Pt       4.03825535       6.91522195       6.67266662        1       0.00000000       0.03088782       0.01634578      -0.05520628
Ni       6.63665446       6.91058396       6.78679567        1       1.00000000      -0.06076828      -0.04329674      -0.13978728
Ni       9.27901328       6.89851437       6.73818783        1       1.00000000       0.03292501       0.01346485      -0.27113701
Pt      11.92240729       6.84279225       6.83448017        1       0.00000000       0.02268566      -0.00648981       0.13395641
