64
Lattice="10.4471802471751 0.03419000558770027 0.01705640148405245 5.253199536982035 9.055057944008023 -0.029441361870771947 0.013926493494659426 -0.03579804693626227 8.93453790537859" Properties=species:S:1:pos:R:3:tags:I:1:initial_magmoms:R:1:forces:R:3 unique_id=ea66067727a74ebaa74326e4af371b8f stress="0.0024835957322898103 1.6130613007320004e-05 -1.1083982634413856e-05 1.6130613007320004e-05 0.002476004123043808 -1.1451194834242431e-06 -1.1083982634413856e-05 -1.1451194834242431e-06 0.0021575231031792305" energy=-404.53574223898926 pbc="T T T"
Ni      -0.05573470      -0.00564437       0.17883989        4       1.00000000      -0.17164548      -0.05267092       0.10259846
Ni       2.63894801      -0.01539159       0.17696199        4       1.00000000       0.13568501      -0.08755856       0.13839447
Ni       5.25102405      -0.01605924       0.16877356        4       1.00000000       0.07942817       0.01884844       0.12142953
Ni       7.86529537      -0.02285333       0.13345368        4       1.00000000       0.01462652      -0.09197739       0.07360585
Ni       1.30948277       2.27634037       0.16319987        4       1.00000000       0.00981235       0.01410953       0.13219147
Pt       3.87015029       2.32231163       0.15754421        4       0.00000000      -0.00125349       0.08071864      -0.09040535
Pt       6.56134764       2.20268180       0.14574429        4       0.00000000       0.02406361      -0.09251268      -0.08444807
Ni       9.16168827       2.24224225       0.16202152        4       1.00000000      -0.05936539      -0.14933411       0.09684019
Ni       2.61410421       4.54707909       0.04368236        4       1.00000000       0.01464754       0.05614985      -0.06813140
Ni       5.25568422       4.53364308       0.14805574        4       1.00000000       0.20606353      -0.06164770       0.08347958
Pt       7.93081715       4.55777508       0.06324010        4       0.00000000       0.10121725      -0.03870522      -0.13969313
Ni      10.49422693       4.57161487       0.04074671        4       1.00000000       0.06137031       0.04190108      -0.08615248
Ni       3.91186390       6.82563714       0.16670716        4       1.00000000      -0.01386692       0.09909969       0.13084694
Pt       6.53575872       6.84395679       0.18936222        4       0.00000000       0.00306423      -0.00457140      -0.00837795
Ni       9.19372859       6.81106180       0.06202542        4       1.00000000       0.01980609      -0.02556673      -0.01231741
Ni      11.80116889       6.82518292       0.04577629        4       1.00000000       0.09672213       0.04351330      -0.06517754
Pt       1.27867067       0.69633737       2.14924888        3       0.00000000      -0.02189262      -0.02176817       0.07422596
Pt       3.98607517       0.77301201       2.24734604        3       0.00000000       0.03663774       0.01130581       0.09426935
Ni       6.58030586       0.74769235       2.26615066        3       1.00000000       0.07138254      -0.02118684       0.00473607
Ni       9.09207246       0.73798612       2.20485651        3       1.00000000      -0.10028895       0.00377813      -0.01286367
Ni       2.61232201       3.03160127       2.22929905        3       1.00000000      -0.07098057       0.01642317       0.06388627
Ni       5.26002236       3.02096445       2.25479617        3       1.00000000       0.06775722      -0.00720158      -0.01819504
Pt       7.80588639       3.03239449       2.35066156        3       0.00000000      -0.01844213       0.03052912      -0.03784570
Pt      10.42053079       3.06190892       2.16797606        3       0.00000000      -0.07103948       0.04518651       0.02802114
Pt       3.98160828       5.28899903       2.13111741        3       0.00000000       0.03327041      -0.02111965       0.02297710
Ni       6.59708035       5.28826012       2.24498463        3       1.00000000       0.10912021       0.00324458      -0.01149903
Ni       9.13013198       5.31665926       2.27737197        3       1.00000000      -0.01335960      -0.00032511       0.04868775
Pt      11.77557792       5.31006248       2.14963866        3       0.00000000       0.02737410      -0.01807174      -0.04927817
Ni       5.21231689       7.54985306       2.19254177        3       1.00000000      -0.07463974       0.02142335       0.01691682
Ni       7.87942477       7.48969810       2.22526952        3       1.00000000       0.05312060      -0.08939330       0.05357623
Pt      10.47769629       7.52449351       2.14022780        3       0.00000000      -0.01563399      -0.02807145       0.02250328
Ni      13.10234235       7.61439441       2.17116362        3       1.00000000      -0.04956643       0.02265971      -0.02810646
Pt      -0.08745927       1.54009315       4.38545842        2       0.00000000      -0.09779597       0.03541539       0.01526331
Pt       2.62490348       1.50191216       4.39184613        2       0.00000000      -0.11613905      -0.03713198       0.01293711
Ni       5.28709358       1.51934284       4.39558583        2       1.00000000       0.03175647       0.01929546      -0.12650856
Ni       7.81459923       1.54507627       4.40813337        2       1.00000000      -0.02044752       0.01792577      -0.07576559
Pt       1.24051614       3.81371286       4.45283129        2       0.00000000      -0.02612974       0.00471973      -0.01677579
Pt       3.99810486       3.73290559       4.34733429        2       0.00000000       0.00101338       0.01472633      -0.07319189
Ni       6.60429617       3.76316464       4.42882980        2       1.00000000       0.01232526       0.01566675       0.00770815
Ni       9.10573778       3.84551742       4.45332316        2       1.00000000      -0.01979077       0.03237267      -0.06786372
Pt       2.58483644       6.02797048       4.43616820        2       0.00000000       0.03258183       0.01916614      -0.05449595
Pt       5.33758687       5.97555199       4.33680685        2       0.00000000       0.01058683      -0.05507003      -0.00188523
Ni       7.92520536       5.94953249       4.39632814        2       1.00000000       0.01489574      -0.05900627      -0.12899786
Ni      10.41178429       6.01178409       4.47251771        2       1.00000000      -0.02592393      -0.02290671      -0.09318946
Pt       3.92258629       8.30498716       4.32178354        2       0.00000000       0.01189923      -0.02648405      -0.02275469
Pt       6.58133532       8.24276228       4.33792456        2       0.00000000      -0.01338813       0.01577381       0.01448651
Pt       9.18916443       8.19081923       4.41292208        2       0.00000000      -0.01868857       0.00281134       0.03210316
Pt      11.78569060       8.36871748       4.38446099        2       0.00000000      -0.01689540       0.02597945      -0.03452163
Pt      -0.04569216      -0.01754920       6.71788258        1       0.00000000      -0.02389869       0.05439653       0.07096349
Pt       2.64372401      -0.05166066       6.72408384        1       0.00000000       0.00536515       0.02432031       0.12945303
Pt       5.29220546      -0.11187869       6.71629585        1       0.00000000       0.03239014      -0.10971708       0.12418614
Ni       7.83377157       0.00227529       6.64375508        1       1.00000000       0.02539871       0.06237052      -0.09168763
Pt       1.30082411       2.34234205       6.72173332        1       0.00000000      -0.01199482       0.10062759       0.13410527
Pt       3.93763636       2.26403789       6.57797835        1       0.00000000       0.03428577      -0.02992120       0.02671937
Pt       6.57251559       2.24142649       6.50578181        1       0.00000000      -0.02398001      -0.02513768      -0.04822957
Pt       9.13110582       2.36385177       6.66853897        1       0.00000000       0.00666110       0.14520819       0.10370481
Ni       2.58574050       4.53699009       6.62986751        1       1.00000000      -0.06355754       0.05635434      -0.11841119
Pt       5.25671867       4.52164132       6.65850267        1       0.00000000      -0.04327300       0.02560185       0.05987008
Ni       7.91242610       4.54721595       6.50614187        1       1.00000000       0.02050145       0.06833438      -0.16744403
Ni      10.43977907       4.61472516       6.61511505        1       1.00000000      -0.06906683       0.11292156      -0.12232398
Pt       3.83289303       6.76971653       6.70950023        1       0.00000000      -0.09470958       0.04378226       0.13884199
Pt       6.65068677       6.71704462       6.57840540        1       0.00000000       0.03372263       0.00690377       0.01735715
Ni       9.21883868       6.70724686       6.59944431        1       1.00000000       0.02383834      -0.08777190      -0.10150447
Ni      11.73537484       6.73785862       6.62983867        1       1.00000000      -0.09473723      -0.14873561      -0.13884337
