64
Lattice="10.239068413863686 0.00915128797924179 -0.0037816897975927427 5.127459454799212 8.92496655502749 0.01060263653141829 0.0 0.0 21.63464924895133" Properties=species:S:1:pos:R:3:tags:I:1:initial_magmoms:R:1:forces:R:3 unique_id=5947980b4d0f4f4fb9c2f8e9b65dee70 stress="0.004168781113783401 -5.058596310800001e-05 0.00020753624454723682 -5.058596310800001e-05 0.004372670128604912 -0.00011729896783187987 0.00020753624454723682 -0.00011729896783187987 -0.0025677009197082844" energy=-373.5816749607919 pbc="T T T"
Ni       0.04988895       0.04166995       0.17908373        2       1.00000000       0.18654642       0.10496805      -0.51607410
Ni       2.58028136       0.03701570       0.22734455        2       1.00000000       0.03017560      -0.01170064      -0.18953939
Ni       5.06898598      -0.00404554       0.09723802        1       1.00000000      -0.04635894       0.08339754       0.23599596
Pt       7.68134812      -0.03910728       0.00000000        0       0.00000000      -0.11558728       0.10985007      -0.57435993
Ni       1.30422125       2.23214429       0.11296642        1       1.00000000       0.12456590      -0.01032957       0.32193544
Ni       3.79927399       2.23692864       0.22266292        2       1.00000000       0.00630479       0.03739299      -0.02329889
Pt       6.37135852       2.32108700       0.18759011        2       0.00000000      -0.04828696       0.06001520      -0.91345885
Ni       8.99455491       2.27791935       0.07547885        1       1.00000000      -0.07111036       0.01674297       0.10309815
Ni       2.57593209       4.44160653       0.10486005        1       1.00000000       0.04262117      -0.12826119       0.28369047
Ni       5.06957158       4.46710521       0.19674209        2       1.00000000      -0.18323406       0.02601845      -0.20300050
Ni       7.74374770       4.46320589       0.10317912        1       1.00000000       0.19188810       0.00754216       0.13020050
Ni      10.23916133       4.46926448       0.07327058        1       1.00000000      -0.00436279       0.08525864       0.17832160
Ni       3.83240412       6.63568492       0.08856099        1       1.00000000      -0.02899622      -0.13341293       0.09343150
Pt       6.45410410       6.69781374       0.02638399        0       0.00000000       0.17040013       0.08202043      -0.42611418
Ni       8.98265450       6.68413730       0.17168179        2       1.00000000      -0.04025607      -0.12020510      -0.12077167
Ni      11.50660789       6.66312263       0.06827195        1       1.00000000      -0.05225417      -0.04792919       0.11826296
Ni       1.34553285       0.76647767       2.20014574        3       1.00000000       0.05628400       0.04820727       0.01160745
Ni       3.78797211       0.77180071       2.21433983        3       1.00000000      -0.05048847       0.00105325       0.07671140
Pt       6.29371771       0.78914703       2.30719335        4       0.00000000      -0.13355393       0.06663619       0.17566326
Pt       8.99157113       0.79083587       2.21046710        3       0.00000000      -0.07754751       0.00556990       0.04788031
Ni       2.60888167       2.96745523       2.21022404        3       1.00000000      -0.00962342       0.05271710       0.03094005
Ni       5.03592490       3.00222353       2.26597644        4       1.00000000      -0.15269028       0.01140970       0.26962220
Ni       7.70251828       3.01747117       2.24433872        3       1.00000000       0.06672944       0.00115327       0.16193519
Pt      10.25125350       2.99999156       2.20566515        3       0.00000000       0.03479711      -0.06364806       0.06200520
Ni       3.85160780       5.14233831       2.25044296        4       1.00000000       0.01340187      -0.07928516       0.12993868
Pt       6.44444468       5.16957051       2.22982923        3       0.00000000       0.08158821      -0.10604095       0.07789656
Ni       8.94867263       5.20527633       2.24722288        3       1.00000000       0.02523467      -0.04180682       0.08945990
Pt      11.54399079       5.17826679       2.20018960        3       0.00000000      -0.01154920      -0.03912938       0.01112342
Pt       5.16267695       7.41544325       2.22322105        3       0.00000000      -0.00091279      -0.08309602      -0.02522573
Ni       7.69480369       7.46221516       2.24412989        3       1.00000000      -0.04133660      -0.00973543       0.14879968
Pt      10.13623493       7.43696589       2.26711946        4       0.00000000      -0.08716670      -0.04414430       0.10951805
Pt      12.79021191       7.39661002       2.25371086        4       0.00000000      -0.02932671       0.00629483       0.08355063
Ni       0.01486274       1.51857879       4.43728131        6       1.00000000       0.11438810      -0.03110193      -0.10890496
Pt       2.59901886       1.50924102       4.30923205        5       0.00000000       0.06165486       0.02551289      -0.02478029
Ni       5.10140376       1.47314877       4.41750277        6       1.00000000      -0.04244830       0.00691696      -0.00237351
Pt       7.73267655       1.51668246       4.41516511        6       0.00000000       0.10537497       0.05973226       0.11857160
Pt       1.26496842       3.77456737       4.50156212        7       0.00000000      -0.00901294       0.00281629       0.05497788
Ni       3.83907336       3.76803462       4.37781882        6       1.00000000       0.00742728       0.03929649      -0.16427502
Pt       6.39344820       3.76680716       4.38949687        6       0.00000000      -0.03880175       0.06672540      -0.04487737
Ni       8.96740931       3.77619038       4.44166011        6       1.00000000      -0.01216370       0.15152581      -0.03494067
Ni       2.55381135       5.93094118       4.46946108        7       1.00000000      -0.07469590      -0.07632840      -0.01604156
Ni       5.09147448       5.93630092       4.41700198        6       1.00000000      -0.01528525      -0.11810396      -0.21013562
Ni       7.73720097       5.94041798       4.41280831        6       1.00000000       0.17550172      -0.05024856      -0.17787145
Ni      10.23831522       5.97587225       4.42420750        6       1.00000000      -0.01938342       0.02273674      -0.12242385
Pt       3.80253732       8.09475798       4.47604310        7       0.00000000       0.03572121      -0.06577814      -0.02002489
Pt       6.46527683       8.13063258       4.39050219        6       0.00000000       0.14438417      -0.03743780      -0.08740302
Ni       9.01350829       8.17237461       4.41887585        6       1.00000000       0.01885458       0.01850614      -0.04178129
Ni      11.46355286       8.15632429       4.47317538        7       1.00000000      -0.12520855      -0.06269355      -0.01076249
Pt      -0.05873673       0.04979640       6.62480309        9       0.00000000      -0.10717647       0.07554257       0.24041982
Pt       2.58140871      -0.00858582       6.63464925        9       0.00000000       0.06632488      -0.10810771       0.14570575
Ni       5.15641267      -0.02820086       6.53373913        8       1.00000000       0.00977380      -0.01871651      -0.18527934
Ni       7.63007862      -0.03417908       6.46354299        8       1.00000000      -0.11445194      -0.04474205       0.56355778
Ni       1.23506378       2.27846638       6.57927238        9       1.00000000      -0.01411113      -0.06679984      -0.11574002
Pt       3.79739994       2.29062635       6.60031655        9       0.00000000       0.15444372       0.19872556       0.06101124
Pt       6.43946640       2.21436722       6.54998775        8       0.00000000      -0.16126556       0.02720307       0.97103331
Ni       8.99723877       2.30261978       6.55934016        9       1.00000000       0.03469864       0.12612355      -0.13468172
Ni       2.51673984       4.52494999       6.57523978        9       1.00000000       0.02164613       0.11638539      -0.15197589
Pt       5.08782017       4.58074050       6.59923747        9       0.00000000      -0.09276233      -0.08325641       0.14590924
Ni       7.72338826       4.47418282       6.55679972        9       1.00000000       0.04308622      -0.07220280      -0.21055046
Ni      10.24273885       4.45849272       6.57133808        9       1.00000000      -0.02963648       0.03912367      -0.14289780
Ni       3.78796167       6.69382062       6.57210795        9       1.00000000      -0.08773345       0.01130730      -0.06752981
Ni       6.39963115       6.68785622       6.46230737        8       1.00000000       0.08376515      -0.01280907       0.33972349
Pt       9.02077191       6.63462759       6.55241992        9       0.00000000       0.00007207       0.00706984      -0.13936040
Ni      11.55236657       6.70329463       6.53864167        8       1.00000000       0.02112471      -0.03444647      -0.38604397
