64
Lattice="10.752378631485897 0.0037150775070739785 -0.00946499191955227 5.3794066672411045 9.312289670579258 0.0019628478663379885 0.0 0.0 21.893115374639557" Properties=species:S:1:pos:R:3:tags:I:1:initial_magmoms:R:1:forces:R:3 unique_id=5f2034ff4a6e4134a6ed824475b70ef2 stress="0.005316225525080152 3.1814215400041496e-05 -1.4795566865129374e-05 3.1814215400041496e-05 0.005178210727243232 -1.609866471522106e-05 -1.4795566865129374e-05 -1.609866471522106e-05 -0.001069134843104549" energy=-402.37659869776525 pbc="T T T"
Pt      -0.00151931       0.00244836       0.08224377        1       0.00000000      -0.00156481      -0.02733610      -0.32915783
Pt       2.68463311       0.00677265       0.07902398        1       0.00000000       0.02577629      -0.01728404      -0.33023442
Pt       5.37679549      -0.00117472       0.07963848        1       0.00000000      -0.02443637       0.03388363      -0.38899117
Pt       8.06651614       0.00170799       0.07530108        1       0.00000000      -0.01351660      -0.01313733      -0.21644614
Pt       1.34292553       2.33089836       0.01508681        0       0.00000000       0.05119948       0.04000620       0.10651003
Pt       4.02638604       2.33058611       0.08275672        1       0.00000000      -0.00911999      -0.02629131      -0.27168121
Pt       6.72352986       2.33290999       0.08499401        1       0.00000000      -0.03290098      -0.01398147      -0.24981822
Pt       9.41161185       2.33091608       0.00000000        0       0.00000000      -0.03125649       0.00524815       0.03820703
Pt       2.69152907       4.66278356       0.09886663        1       0.00000000       0.07265151       0.04353904      -0.09535979
Pt       5.36664291       4.66313759       0.10580166        1       0.00000000      -0.12436609       0.06811194      -0.34301222
Pt       8.06408266       4.65802034       0.08242213        1       0.00000000       0.00305662       0.02777558      -0.27851550
Pt      10.76090060       4.65487909       0.06897283        1       0.00000000       0.01751541       0.03437906      -0.18619894
Pt       4.02736211       6.97287762       0.10693770        1       0.00000000      -0.02035132      -0.11966311      -0.26485351
Pt       6.72205180       6.98373753       0.08982586        1       0.00000000       0.03912714       0.01681788      -0.34848742
Pt       9.41255564       6.98543607       0.08051412        1       0.00000000      -0.02020145      -0.00326217      -0.32927649
Pt      12.10010026       6.98558940       0.00928304        0       0.00000000      -0.00879804      -0.02309544       0.03870546
Pt       1.35053441       0.79205491       2.40039279        2       0.00000000      -0.05142062       0.06727958       0.49447422
Pt       4.02112219       0.79211224       2.39665697        2       0.00000000       0.00212135       0.02762617       0.49629843
Pt       6.72764185       0.78338954       2.39467180        2       0.00000000       0.00619837      -0.05120691       0.51740318
Pt       9.40062699       0.78606142       2.39443375        2       0.00000000       0.06624534       0.03152345       0.49246981
Pt       2.68459017       3.12883457       2.42097365        2       0.00000000      -0.08067842      -0.02681515       0.42940810
Pt       5.35001293       3.14309634       2.37778826        2       0.00000000      -0.07935185       0.08412759       0.45292104
Pt       8.06886764       3.09653543       2.39454067        2       0.00000000       0.06080970      -0.00511160       0.43269530
Pt      10.76789927       3.11825210       2.39786145        2       0.00000000       0.02438448       0.02548572       0.44836592
Ni       4.02389533       5.43336570       2.35815471        2       1.00000000      -0.01895676      -0.04044702       0.47537051
Pt       6.69821295       5.43786259       2.39729859        2       0.00000000       0.00451510      -0.02235587       0.47913038
Pt       9.40295940       5.43670668       2.39562548        2       0.00000000       0.05576072      -0.04826630       0.56176147
Pt      12.14440580       5.43186119       2.42444672        2       0.00000000       0.05641321      -0.02063896       0.54179921
Pt       5.35664852       7.73679976       2.37070981        2       0.00000000      -0.03003675       0.04364316       0.40705160
Pt       8.06006759       7.74828535       2.39368859        2       0.00000000      -0.01789207      -0.01069514       0.47209349
Pt      10.76868520       7.75520241       2.38087264        2       0.00000000       0.10469898      -0.05325865       0.42839559
Pt      13.45359441       7.71367863       2.39661922        2       0.00000000      -0.02255858      -0.07976025       0.45404625
Pt       0.03254495       1.61039581       4.71505869        4       0.00000000       0.13568120       0.20102336      -0.09690746
Ni       2.66817133       1.57621532       4.67334103        4       1.00000000      -0.09331457       0.12310843      -0.39666847
Pt       5.36925924       1.56153444       4.64523366        3       0.00000000      -0.02434855       0.02944286      -0.43800195
Ni       8.07104769       1.55986671       4.67385858        4       1.00000000       0.10143045       0.03103752      -0.42380063
Ni       1.35388414       3.87596814       4.68018189        4       1.00000000       0.02132764      -0.10480246      -0.34503891
Pt       3.94786025       3.90437895       4.62120132        3       0.00000000      -0.09455860       0.08413636      -0.37904330
Pt       6.74051462       3.88749105       4.64143820        3       0.00000000      -0.05723310       0.02698318      -0.36482260
Pt       9.41597954       3.86852737       4.66854562        4       0.00000000       0.01239448      -0.07824000      -0.31384986
Ni       2.67850557       6.19562326       4.66320617        4       1.00000000      -0.04785801      -0.01998925      -0.40574613
Pt       5.34603749       6.19934637       4.61941502        3       0.00000000      -0.15867287      -0.02361392      -0.44144280
Ni       8.06755925       6.21023069       4.66273687        4       1.00000000       0.03160175      -0.02311585      -0.49854526
Pt      10.80066682       6.18055763       4.67010006        4       0.00000000       0.20378874      -0.07231747      -0.28084395
Pt       4.01392346       8.55024839       4.65020782        4       0.00000000       0.09428791       0.09805418      -0.39103210
Pt       6.73178481       8.54970884       4.64337003        3       0.00000000      -0.07891872       0.01243555      -0.40776679
Pt       9.38874615       8.53605879       4.64518099        3       0.00000000       0.03547817      -0.04202762      -0.40709300
Pt      12.11937893       8.51429978       4.66950846        4       0.00000000      -0.00505137      -0.18075135      -0.30255550
Pt      -0.01109499       0.06873233       6.89311537        5       0.00000000      -0.05565596       0.06528279       0.29373776
Pt       2.66474940       0.04704510       6.87521297        5       0.00000000      -0.02101556       0.17906366       0.27134710
Pt       5.38773657      -0.01951133       6.88990243        5       0.00000000       0.02108213       0.04418292       0.37508400
Pt       8.06693371       0.02300452       6.87374553        5       0.00000000       0.07076708       0.18370511       0.31389825
Ni       1.32935669       2.33902301       6.88532780        5       1.00000000       0.03479495       0.06871477      -0.41954078
Pt       3.97937105       2.33326797       6.86940183        5       0.00000000      -0.12927074      -0.02006042       0.17332815
Pt       6.76078216       2.32567824       6.87178550        5       0.00000000       0.11987425      -0.11512711       0.23306323
Ni       9.41759285       2.33680162       6.88201090        5       1.00000000       0.00091745      -0.03436853      -0.38321124
Pt       2.63600301       4.66634189       6.85570771        5       0.00000000      -0.20148009       0.06718472       0.02977132
Pt       5.36026771       4.65303506       6.89265755        5       0.00000000      -0.09221753      -0.06521328       0.19981016
Pt       8.08993071       4.64502808       6.87709935        5       0.00000000       0.10935609       0.13666979       0.30178100
Pt      10.77634721       4.60988657       6.86615152        5       0.00000000       0.15566688      -0.22778002       0.18738794
Pt       3.98034924       6.98644109       6.87916986        5       0.00000000      -0.17849881      -0.01916244       0.08586032
Pt       6.72556874       6.99281295       6.87631404        5       0.00000000       0.07424858      -0.02580571       0.24390506
Pt       9.43342249       6.97560087       6.86828334        5       0.00000000      -0.04245555      -0.18863536       0.19679602
Ni      12.09594945       6.98550658       6.88823461        5       1.00000000       0.05478575      -0.05685474      -0.34493374
