64
Lattice="10.285522736120365 -0.032874610063960405 -0.0018709245697086294 5.114291120605284 8.86231943654931 -0.029465304750180308 0.0 0.0 21.545597668685925" Properties=species:S:1:pos:R:3:tags:I:1:initial_magmoms:R:1:forces:R:3 unique_id=8ee0324a2b234bd296516a74c0b6d1f9 energy=-373.776226183362 stress="0.005309732405554835 1.1418682503447399e-05 2.17564331433527e-05 1.1418682503447399e-05 0.005524041674056007 -0.00017600422607082924 2.17564331433527e-05 -0.00017600422607082924 -0.0018434473572610226" pbc="T T T"
Ni      -0.02335104       0.02967347       0.17251291        2       1.00000000      -0.03583367       0.01297224      -0.04857531
Ni       2.56244030      -0.00575420       0.17705726        2       1.00000000      -0.06709195       0.03359535      -0.16520982
Ni       5.13999970      -0.02881703       0.12742311        1       1.00000000       0.00787794       0.21346713      -0.45765028
Ni       7.74011328      -0.06443161       0.08067959        1       1.00000000       0.04161329      -0.02641025       0.38036700
Ni       1.23844442       2.21490778       0.06825010        1       1.00000000      -0.07981067      -0.02076535       0.41567089
Pt       3.77897388       2.21360772       0.06529001        1       0.00000000       0.03660301      -0.00832212      -0.06656197
Pt       6.44864672       2.13839375       0.15057570        2       0.00000000       0.03151285      -0.04716316      -0.48418316
Ni       9.03461397       2.16044570       0.13663110        1       1.00000000       0.01389022      -0.02534036       0.11311107
Ni       2.55469821       4.44264682       0.02014767        0       1.00000000       0.09336281       0.01337070       0.16490052
Ni       5.09425824       4.43498705       0.13590506        1       1.00000000      -0.03591663       0.02227666       0.01778465
Pt       7.77178075       4.41819901       0.05399926        1       0.00000000      -0.00007874      -0.05720378       0.00730515
Ni      10.29881972       4.39110290       0.01902099        0       1.00000000       0.01320239      -0.09993724       0.19552899
Ni       3.79912969       6.64862690       0.13606583        1       1.00000000      -0.02885779      -0.03462560       0.00858992
Pt       6.37284047       6.67992928       0.13089175        1       0.00000000      -0.10350511       0.03319234      -0.56546502
Ni       8.99755954       6.63883864       0.01308536        0       1.00000000      -0.11037345      -0.02022971       0.07048551
Ni      11.57239252       6.62417443       0.00000000        0       1.00000000       0.15441834       0.01591480       0.11712665
Ni       1.25813963       0.75276392       2.11304230        4       1.00000000      -0.10973775       0.12163433       0.01051231
Ni       3.84810405       0.74662092       2.14630496        4       1.00000000       0.06542159       0.07452466       0.13810828
Ni       6.46007782       0.72424674       2.19302832        5       1.00000000       0.14105111       0.11636060       0.18387179
Ni       8.99779455       0.72503831       2.13195164        4       1.00000000      -0.02833090       0.08070256       0.08669081
Ni       2.56431730       2.93719417       2.14592291        4       1.00000000       0.00342007       0.00413520       0.07604465
Ni       5.10469744       2.94911831       2.17800613        5       1.00000000      -0.16802145       0.00112677       0.12790708
Ni       7.75239170       2.91204039       2.18458918        5       1.00000000       0.18480155      -0.06057120       0.11633982
Ni      10.25345423       2.87817132       2.13312669        4       1.00000000       0.02647550      -0.07544441       0.06662390
Ni       3.87531599       5.16066183       2.14927365        4       1.00000000       0.10226611      -0.04237975       0.12641368
Ni       6.39296968       5.15304142       2.16836266        5       1.00000000      -0.05498438       0.05252208       0.11393648
Ni       8.96156064       5.11797113       2.16996035        5       1.00000000      -0.06750364      -0.14730992       0.15597529
Pt      11.60113095       5.09925640       2.07477136        4       0.00000000       0.07121574      -0.07929021      -0.04395454
Ni       5.07587899       7.37280294       2.12348185        4       1.00000000      -0.11440626      -0.06852426       0.01090999
Ni       7.68694680       7.36588409       2.12729265        4       1.00000000       0.04242777      -0.08099652       0.01656998
Pt      10.24987630       7.37299369       2.03946804        3       0.00000000       0.02628865      -0.09106344      -0.10533129
Ni      12.86788085       7.36403516       2.08479437        4       1.00000000       0.02413850       0.04315409      -0.01481691
Ni      -0.03259841       1.49668657       4.25640317        7       1.00000000      -0.04634272      -0.01517498      -0.34168302
Pt       2.59717747       1.51205781       4.24144782        6       0.00000000      -0.03406920      -0.00771318      -0.10399381
Ni       5.13957927       1.48406891       4.25613139        7       1.00000000       0.04068133       0.11217488      -0.34043345
Ni       7.74154534       1.47019486       4.24577737        6       1.00000000       0.11735925       0.07293748      -0.34854848
Pt       1.26648872       3.67191690       4.33333445        7       0.00000000      -0.04939746      -0.06947083      -0.05067120
Ni       3.85478932       3.70610015       4.26086527        7       1.00000000       0.06149957       0.09858703      -0.28827286
Pt       6.43224015       3.68492746       4.18141598        6       0.00000000      -0.03037945      -0.00763255      -0.03038918
Ni       8.97091865       3.63379730       4.26183709        7       1.00000000      -0.03114694      -0.12730808      -0.34384921
Ni       2.57898374       5.86216314       4.27675880        7       1.00000000       0.11445410      -0.04432298      -0.19320173
Ni       5.09197844       5.85484075       4.23138166        6       1.00000000      -0.09647767      -0.01445018      -0.34018333
Ni       7.69780725       5.83649262       4.24550062        6       1.00000000      -0.06954436      -0.02274735      -0.33551996
Pt      10.22801848       5.82427515       4.34402898        7       0.00000000       0.01939476       0.01704456      -0.07130237
Pt       3.82555696       8.12784886       4.18565162        6       0.00000000       0.01212355       0.08049454      -0.01876653
Pt       6.37610936       8.07999280       4.15174547        6       0.00000000      -0.06711065      -0.00290071      -0.15308024
Pt       8.95882381       8.08988797       4.23633790        6       0.00000000      -0.08237467       0.00844231      -0.02571212
Pt      11.58231075       8.12428316       4.25693710        7       0.00000000       0.07562734       0.07250078       0.00367506
Pt      -0.02075647       0.02451911       6.51593806        9       0.00000000       0.09275704       0.05388996       0.17938770
Pt       2.58759110       0.03003756       6.54559767        9       0.00000000       0.02223030      -0.00553307       0.43702763
Pt       5.18040520      -0.09867686       6.52624078        9       0.00000000      -0.06905798       0.07794011       0.54243718
Ni       7.71320477      -0.04698449       6.46904234        9       1.00000000       0.03022964       0.11308343      -0.04661726
Ni       1.29825531       2.25526134       6.46403833        9       1.00000000      -0.00605841      -0.01253118      -0.07486206
Ni       3.82174967       2.21864210       6.37554223        8       1.00000000       0.03777109      -0.08223171       0.15046307
Pt       6.43585943       2.16341551       6.37322554        8       0.00000000      -0.00264446      -0.03748243       0.54712482
Pt       9.03624635       2.25978321       6.43331435        8       0.00000000       0.05421102       0.09765418      -0.01711065
Ni       2.50589023       4.39060461       6.44342708        8       1.00000000      -0.02590866       0.03753842      -0.12534313
Pt       5.05629799       4.36601420       6.44488170        8       0.00000000      -0.08791366       0.08783422       0.11882821
Ni       7.75010409       4.41579705       6.35146206        8       1.00000000       0.06241500       0.03607247       0.00704217
Ni      10.28771807       4.41586781       6.46272928        9       1.00000000       0.01336516       0.02633188      -0.05006565
Pt       3.72286501       6.61080275       6.46206373        9       0.00000000       0.14863794      -0.17938780       0.00961589
Pt       6.46551753       6.56357050       6.36836559        8       0.00000000      -0.15973713      -0.03997546       0.53435832
Ni       9.00412818       6.55607461       6.44750567        8       1.00000000      -0.08228048      -0.02157843       0.03714490
Ni      11.52933152       6.55776214       6.45083491        9       1.00000000      -0.03784821      -0.15545758      -0.03652483
