64
Lattice="10.61519707011578 -0.012854670677768739 0.05248400302997374 5.29646606369366 9.18658885191267 0.025655814991529732 0.042853009027374246 -0.000552661954368921 9.10417963126493" Properties=species:S:1:pos:R:3:tags:I:1:initial_magmoms:R:1:forces:R:3 unique_id=89906461fbf24703bf727101f0d65036 stress="0.0074507276150331675 -4.1433619731485654e-05 -8.333465360257544e-06 -4.1433619731485654e-05 0.007510148795621466 1.017754829822776e-05 -8.333465360257544e-06 1.017754829822776e-05 0.005710966254957275" energy=-417.0841599012632 pbc="T T T"
Pt       0.05975324       0.00053897       0.12670948        4       0.00000000       0.10940261       0.03982609       0.02037502
Ni       2.65753270      -0.01031476       0.08252896        4       1.00000000       0.03781203      -0.01771665       0.19042983
Pt       5.27125857      -0.02382604       0.14120458        4       0.00000000      -0.05554911      -0.00719419      -0.00456507
Pt       7.96502408      -0.00776318       0.17873404        4       0.00000000       0.02643751       0.04478637       0.05697998
Pt       1.31388335       2.30484024       0.13089682        4       0.00000000       0.04688863      -0.00176582       0.05190900
Pt       3.96308324       2.27129634       0.11995500        4       0.00000000      -0.00574331      -0.01380802       0.03477027
Pt       6.66710167       2.32549837       0.08409574        4       0.00000000       0.01225417      -0.01490311      -0.04247234
Pt       9.29538921       2.38888125       0.21478165        4       0.00000000       0.03886109       0.12888102       0.05084906
Pt       2.61174980       4.59246150       0.14964201        4       0.00000000       0.02136741      -0.02177811       0.04084629
Pt       5.35305605       4.59618854       0.07621152        4       0.00000000       0.04709167      -0.01300730      -0.08575898
Ni       7.97465515       4.58721774       0.19414318        4       1.00000000      -0.01993232       0.01620225       0.22266510
Ni      10.60185206       4.58553864       0.20618114        4       1.00000000       0.07383743       0.00754395       0.20150937
Pt       3.98255379       6.90393614       0.17852299        4       0.00000000       0.02775638       0.05776400       0.04743633
Pt       6.66851194       6.87954533       0.18937748        4       0.00000000       0.04172234       0.01254286       0.09032943
Pt       9.27019991       6.84646061       0.17292782        4       0.00000000       0.00390174       0.00691516      -0.00452397
Pt      11.90943508       6.85123880       0.26150687        4       0.00000000       0.00321112       0.01748826       0.11999826
Pt       1.32826256       0.75286845       2.42489524        3       0.00000000       0.02842856      -0.02381858       0.16102070
Pt       3.98269999       0.72350372       2.44038137        3       0.00000000      -0.04997178      -0.01867888       0.12107113
Pt       6.63560947       0.70215326       2.41125712        3       0.00000000      -0.04775521      -0.07532622       0.01536375
Pt       9.31753520       0.78196526       2.38572303        3       0.00000000       0.01341881       0.14255433       0.01511864
Pt       2.59644169       3.10141778       2.44840638        3       0.00000000      -0.02531447       0.01736941       0.15363794
Pt       5.34871106       3.07613307       2.39806367        3       0.00000000      -0.02738736      -0.07413847       0.01206034
Ni       7.96873949       3.07855382       2.32821149        3       1.00000000      -0.09652001      -0.01359873       0.08125320
Ni      10.62697770       3.07236450       2.36476605        3       1.00000000       0.09176270       0.01290249       0.11049264
Pt       4.00366364       5.39446480       2.35320832        3       0.00000000       0.08177825      -0.06038492      -0.03482514
Ni       6.66063375       5.35061757       2.33148603        3       1.00000000       0.06282185      -0.06609381       0.06184046
Pt       9.29487984       5.29275837       2.31266006        3       0.00000000      -0.06024289      -0.05592931      -0.01049516
Ni      11.91880130       5.35180684       2.36575072        3       1.00000000      -0.07074934      -0.04510498       0.08935257
Ni       5.31302900       7.64717145       2.33673284        3       1.00000000       0.04684658       0.02270380       0.04887088
Pt       7.94654877       7.61443324       2.45890462        3       0.00000000       0.02043425      -0.07304103       0.19138103
Ni      10.63583954       7.63197480       2.37968873        3       1.00000000      -0.02598292       0.00160938       0.08922434
Ni      13.24788928       7.63523947       2.38994201        3       1.00000000      -0.04522203      -0.00275336       0.13037324
Ni       0.05833319       1.54067901       4.51808454        2       1.00000000       0.01279874       0.04215955      -0.05984194
Ni       2.67630648       1.50356938       4.55265237        2       1.00000000       0.03173368      -0.10300307       0.02376570
Ni       5.30119207       1.51165545       4.55599866        2       1.00000000      -0.02735043      -0.00497686      -0.12232074
Pt       7.92884039       1.52623920       4.55399881        2       0.00000000      -0.02391572      -0.00855998      -0.01945149
Ni       1.34315501       3.80563594       4.51892532        2       1.00000000      -0.10279278       0.04294742      -0.00621979
Ni       3.98987290       3.79973570       4.54954923        2       1.00000000       0.00436266       0.02927646      -0.10798933
Pt       6.62218432       3.82149537       4.56835392        2       0.00000000       0.06470273       0.06206177      -0.04825380
Pt       9.35270939       3.80239172       4.49244934        2       0.00000000       0.05184546      -0.04061091      -0.02633489
Pt       2.62982593       6.10794694       4.45265501        2       0.00000000      -0.05323981       0.01337787      -0.09250181
Pt       5.38138090       6.12538886       4.49500331        2       0.00000000       0.07611865       0.07151206      -0.12738402
Ni       7.97324056       6.13461243       4.55431363        2       1.00000000       0.03169183      -0.11103782      -0.03514713
Pt      10.60828731       6.17542523       4.47933828        2       0.00000000      -0.08826770       0.06220179      -0.09756183
Pt       4.02288427       8.42248925       4.46380127        2       0.00000000       0.00754042      -0.02142690      -0.11382156
Ni       6.69505740       8.44104178       4.56059080        2       1.00000000       0.11035260       0.03944459       0.04196287
Ni       9.27301063       8.44055850       4.57152286        2       1.00000000      -0.08697926       0.03086735      -0.01860305
Ni      11.92090678       8.41602357       4.55586201        2       1.00000000      -0.06207709      -0.03939953      -0.12334382
Pt       0.08262945       0.00011478       6.65484031        1       0.00000000      -0.00534193       0.01218020      -0.09802675
Ni       2.68913607       0.00449242       6.72756125        1       1.00000000       0.02473108       0.04401293      -0.27523390
Pt       5.29629588       0.02697166       6.64471030        1       0.00000000      -0.03025556      -0.02037967      -0.12536868
Pt       7.95827242       0.00552622       6.73320587        1       0.00000000      -0.02749548      -0.04137095      -0.03689170
Pt       1.39050215       2.26138803       6.63092682        1       0.00000000       0.03047795       0.01451385      -0.07030577
Pt       4.05026343       2.29472476       6.62985477        1       0.00000000       0.04650796       0.05170427      -0.09113215
Ni       6.63868280       2.30039635       6.71662754        1       1.00000000      -0.07057527      -0.00902378      -0.20140626
Pt       9.29429122       2.28374745       6.74460557        1       0.00000000       0.00332386       0.00088196      -0.00579186
Pt       2.71734049       4.56548490       6.67457815        1       0.00000000      -0.01434525       0.01340045      -0.07759041
Ni       5.33421437       4.56799343       6.70844315        1       1.00000000      -0.03954330      -0.00433068      -0.24882228
Pt       7.91984003       4.56255502       6.81248441        1       0.00000000      -0.04177162      -0.02023191       0.09615167
Pt      10.63841205       4.57766837       6.81883484        1       0.00000000      -0.03694742       0.00680615       0.00555097
Pt       4.02483040       6.86306136       6.73026527        1       0.00000000      -0.00581761      -0.01244361      -0.05609933
Pt       6.66961408       6.89874277       6.70138630        1       0.00000000      -0.00524218       0.00063536      -0.01870554
Pt       9.27058692       6.92427555       6.70633992        1       0.00000000      -0.03539437      -0.01644057      -0.09684202
Pt      11.95085027       6.89151562       6.76302923        1       0.00000000      -0.04449926      -0.01479570       0.00704249
