64
Lattice="10.746303527567994 -0.00048437105125701706 0.004282796305065565 5.372732286148749 9.315620976268832 0.012097021239354354 0.0 0.0 21.966939378251364" Properties=species:S:1:pos:R:3:tags:I:1:initial_magmoms:R:1:forces:R:3 unique_id=a4e4525965744090b0e966f29929e2f9 energy=-403.4822190335491 stress="0.003040078252731754 4.9894758011039964e-05 2.4569772357691002e-05 4.9894758011039964e-05 0.003136468920350922 2.2025622162033972e-05 2.4569772357691002e-05 2.2025622162033972e-05 -0.001724755754423199" pbc="T T T"
Pt       0.04625908       0.01045628       0.04739791        0       0.00000000       0.09083955       0.10806222      -0.15390525
Ni       2.69577802       0.01535663       0.00000000        0       1.00000000       0.05158557       0.06411312       0.57477264
Pt       5.29260959       0.04722738       0.06936110        1       0.00000000      -0.28002667       0.22875260      -0.00662499
Pt       8.05160274       0.00423867       0.04961074        0       0.00000000      -0.09767665       0.08692822      -0.32260010
Pt       1.41889508       2.29472734       0.07174018        1       0.00000000       0.28026270       0.02608639      -0.04966665
Ni       4.01842236       2.31309580       0.05642112        1       1.00000000      -0.07654030      -0.06345916       0.47336407
Pt       6.67275746       2.32332542       0.05710975        1       0.00000000      -0.11198918      -0.04711060      -0.22902472
Pt       9.41280505       2.32567580       0.05244841        1       0.00000000       0.11881658      -0.03577138      -0.30573307
Pt       2.70251800       4.60978285       0.07503229        1       0.00000000       0.01248146      -0.29413196      -0.22802594
Pt       5.35560320       4.62885600       0.05956785        1       0.00000000       0.01757517      -0.04140016      -0.31816888
Pt       8.05524600       4.66047276       0.05137574        1       0.00000000      -0.04240200       0.03435569      -0.50071781
Pt      10.75338877       4.65363539       0.05567470        1       0.00000000       0.05024064      -0.05652721      -0.42671545
Pt       4.03380737       6.98098317       0.05802068        1       0.00000000       0.07187112      -0.04253603      -0.37676608
Pt       6.73621050       7.01945412       0.05643940        1       0.00000000      -0.00194565      -0.02434810      -0.33542756
Pt       9.38551883       7.02690660       0.05717184        1       0.00000000       0.03233678       0.04697433      -0.37389356
Pt      12.08287355       6.98926428       0.06479639        1       0.00000000      -0.11050267       0.03216975      -0.33139789
Pt       1.41808427       0.81212095       2.33225831        2       0.00000000       0.33745561       0.06014085       0.32777036
Ni       4.01971085       0.79900485       2.30606515        2       1.00000000      -0.14420512       0.13783641       0.22795378
Pt       6.66236712       0.79031840       2.35347262        3       0.00000000      -0.16179091       0.04434335       0.55429653
Pt       9.42275487       0.78789201       2.35695675        3       0.00000000       0.11682227       0.04774724       0.55895598
Ni       2.70164421       3.08387472       2.30328778        2       1.00000000       0.10769299      -0.15992942       0.35294149
Pt       5.29060954       3.04437438       2.32450856        2       0.00000000      -0.39343724      -0.27824788       0.31023250
Pt       8.04937056       3.10025972       2.33327668        2       0.00000000      -0.10805853      -0.04215775       0.46583591
Pt      10.79104103       3.08623562       2.35462490        3       0.00000000       0.14677559      -0.11224412       0.51495827
Pt       4.01660385       5.39314159       2.33849180        2       0.00000000      -0.00163679      -0.12304797       0.51405936
Pt       6.70945677       5.43017125       2.33379550        2       0.00000000      -0.06382346      -0.05604432       0.55481090
Pt       9.40865687       5.44033087       2.33691176        2       0.00000000       0.02084356       0.03966352       0.52897403
Pt      12.10559802       5.40225196       2.34095744        2       0.00000000       0.00280356      -0.08213223       0.50506178
Pt       5.38207309       7.77251852       2.33653497        2       0.00000000       0.07297563       0.05048414       0.53019249
Pt       8.07833253       7.82794795       2.32179404        2       0.00000000       0.07026774       0.33068766       0.35718260
Pt      10.72768417       7.79958336       2.33608309        2       0.00000000      -0.03441221       0.06124124       0.48926825
Pt      13.42792865       7.76837221       2.34969036        2       0.00000000      -0.03777711       0.04656716       0.52459874
Ni       0.00551373       1.55827341       4.65055876        5       1.00000000       0.06036113      -0.00672011      -0.50335257
Pt       2.70555737       1.55226243       4.60034485        4       0.00000000       0.11591486      -0.05654990      -0.42304794
Ni       5.36571998       1.55675900       4.63709853        4       1.00000000      -0.05674221       0.01168744      -0.43817227
Pt       8.05762100       1.55664258       4.62812926        4       0.00000000      -0.03562666      -0.00629953      -0.47229360
Pt       1.34622315       3.83859484       4.61479155        4       0.00000000       0.07121806      -0.17847639      -0.47563638
Pt       4.03294156       3.83231804       4.60978012        4       0.00000000      -0.01153149      -0.19187964      -0.45848681
Pt       6.69962077       3.84970612       4.62851733        4       0.00000000      -0.07867645      -0.10781810      -0.53745459
Pt       9.42151731       3.85094662       4.62753980        4       0.00000000       0.02814007      -0.07803107      -0.49066385
Pt       2.68851245       6.21063756       4.63818114        4       0.00000000       0.01466257      -0.03674443      -0.50806535
Pt       5.37576104       6.21485434       4.63907449        4       0.00000000      -0.00013860      -0.00450834      -0.52802862
Pt       8.06233058       6.21987008       4.63747584        4       0.00000000       0.01035074       0.04359932      -0.58282208
Pt      10.74637017       6.21888250       4.63529361        4       0.00000000      -0.01165264       0.04103871      -0.53665402
Pt       4.04934998       8.57973299       4.64205830        4       0.00000000       0.05376726       0.08478517      -0.49118253
Pt       6.72675619       8.59281000       4.65257638        5       0.00000000       0.16924762       0.21848296      -0.37028233
Pt       9.40113446       8.59973471       4.63661503        4       0.00000000      -0.12346331       0.19023522      -0.39664506
Pt      12.06950877       8.58159167       4.64382187        4       0.00000000      -0.05714644       0.10089670      -0.48554601
Pt       0.04101129       0.01799677       6.89481483        6       0.00000000      -0.00652325       0.16055377       0.27971852
Ni       2.69136918       0.01129032       6.96693938        7       1.00000000      -0.00299445       0.00187804      -0.53626844
Pt       5.33290020       0.02003603       6.90549572        6       0.00000000      -0.00183217       0.12515832       0.16596272
Pt       8.06211510       0.00734504       6.90964602        6       0.00000000      -0.01741917      -0.01326773       0.41693912
Pt       1.36328788       2.29627679       6.90156871        6       0.00000000      -0.09064954      -0.08070039       0.03821934
Pt       4.01655312       2.29687485       6.96573825        7       0.00000000       0.03700636      -0.07243974      -0.28233232
Pt       6.70359011       2.32514445       6.90196986        6       0.00000000      -0.18943532      -0.14459201       0.23900643
Pt       9.41911708       2.32483310       6.89317507        6       0.00000000       0.19960378      -0.13995862       0.25830854
Pt       2.69069415       4.64905699       6.91804196        6       0.00000000      -0.01107140      -0.11093311       0.22410527
Pt       5.37287390       4.65977517       6.92180602        6       0.00000000      -0.00727303       0.03322499       0.35058698
Pt       8.06179056       4.66607126       6.91277213        6       0.00000000      -0.00630163       0.06847190       0.32594449
Pt      10.74849653       4.66260481       6.91843616        6       0.00000000       0.02471096       0.02176949       0.37102856
Pt       4.03765854       6.99873583       6.91912967        6       0.00000000       0.07203190       0.04941233       0.43595559
Pt       6.73643762       7.03034144       6.92103882        6       0.00000000      -0.00901204       0.00574095       0.30112356
Pt       9.38692831       7.03031385       6.92443854        6       0.00000000       0.01641743       0.02398142       0.28939755
Pt      12.08623992       6.99886204       6.92166537        6       0.00000000      -0.09136499       0.06093679       0.41407637
