64
Lattice="10.362014527070333 0.008124599783937796 -0.03715008757301814 5.188043373343636 8.857576673837375 -0.07512361729130247 0.0 0.0 21.563534703489754" Properties=species:S:1:pos:R:3:tags:I:1:initial_magmoms:R:1:forces:R:3 unique_id=a6c3eabe6eee491abd817234c183d052 stress="0.006204968183961024 0.00011378154539833816 -0.0002528934990105969 0.00011378154539833816 0.004725625878918735 5.673393964365587e-05 -0.0002528934990105969 5.673393964365587e-05 -0.002108797957062829" energy=-376.7116926165457 pbc="T T T"
Ni      -0.01413250      -0.02571243       0.19532650        2       1.00000000       0.01080174       0.03680754      -0.13550884
Ni       2.60387181      -0.01918271       0.20238881        2       1.00000000       0.05293015       0.01801225       0.01904394
Ni       5.18167103      -0.03300715       0.16116183        2       1.00000000      -0.00297223       0.00652810      -0.32983346
Ni       7.75584225      -0.05525542       0.16026953        2       1.00000000      -0.08492488      -0.08954267      -0.13784309
Pt       1.28800215       2.21957273       0.18339034        2       0.00000000      -0.04230554      -0.03232772      -0.30586455
Pt       3.86709349       2.17316812       0.18167878        2       0.00000000       0.01530257       0.00848917      -0.49884885
Pt       6.48764681       2.16632701       0.08411763        1       0.00000000       0.00302919      -0.13556555      -0.17032269
Pt       9.06941924       2.26526590       0.09740699        1       0.00000000       0.04934404       0.06786033      -0.57419352
Ni       2.56538304       4.47507947       0.03839940        0       1.00000000      -0.02986249       0.02413382       0.14921067
Pt       5.17524350       4.46516277       0.00870710        0       0.00000000       0.07896332      -0.03874230      -0.23576533
Ni       7.78615858       4.45843366       0.03465447        0       1.00000000      -0.05487599       0.08197245       0.11385023
Ni      10.36318916       4.48267139       0.01365805        0       1.00000000       0.01139355       0.07099496       0.19073411
Ni       3.84502477       6.67616540       0.04361233        0       1.00000000      -0.02769801       0.09136968       0.29621324
Pt       6.50928333       6.70368329       0.05929940        1       0.00000000       0.02360077       0.04827154       0.02441714
Ni       9.08101904       6.64678433       0.08676592        1       1.00000000      -0.02589643       0.04613400      -0.18675218
Ni      11.67615094       6.64857869       0.00000000        0       1.00000000       0.05490205       0.05736152       0.29410525
Ni       1.31430447       0.70846607       2.26638401        5       1.00000000       0.04930065      -0.02000671       0.30403332
Ni       3.83430630       0.72967163       2.22227810        4       1.00000000      -0.21476639      -0.00940615       0.16968270
Ni       6.48187581       0.73742703       2.20865256        4       1.00000000       0.08486147       0.05425801       0.16470921
Pt       9.06570279       0.73186411       2.21472801        4       0.00000000       0.06184792       0.14181881      -0.05560213
Ni       2.58374510       2.90312871       2.28825345        5       1.00000000       0.00746473      -0.12431047       0.38146088
Ni       5.19100245       2.93452823       2.22150659        4       1.00000000       0.02225813       0.08107896       0.15764537
Ni       7.74417283       2.94335031       2.22126713        4       1.00000000      -0.03947391      -0.04635428       0.16278657
Ni      10.37014206       2.93056026       2.25334410        5       1.00000000       0.02794522      -0.09598577       0.38733483
Pt       3.88851348       5.16034365       2.20483151        4       0.00000000      -0.00444772      -0.02038771      -0.06002316
Ni       6.48441832       5.16205722       2.18319525        4       1.00000000      -0.05317087      -0.00046323       0.11090935
Pt       9.00145851       5.12524202       2.18309849        4       0.00000000      -0.04391253      -0.04153545       0.03422015
Pt      11.65480944       5.11815378       2.17016859        4       0.00000000      -0.04587160      -0.13808746       0.05072158
Ni       5.21064199       7.37893011       2.16322085        4       1.00000000       0.06269922      -0.00801067       0.17187898
Ni       7.72955506       7.40075659       2.16354440        4       1.00000000      -0.15263179       0.04035716       0.22035600
Pt      10.39045457       7.42170687       2.10903102        3       0.00000000       0.03143027      -0.03496514       0.10002089
Ni      12.94580082       7.38357807       2.10955998        3       1.00000000       0.01501451      -0.03032906       0.02658007
Ni       0.01445984       1.47548706       4.33177457        7       1.00000000       0.12207113       0.02722116      -0.25351648
Ni       2.53673178       1.47523436       4.30305898        7       1.00000000      -0.07082483       0.02056306      -0.28129980
Pt       5.18790023       1.45025966       4.25658101        7       0.00000000      -0.03465863      -0.08880355      -0.06064378
Ni       7.75741024       1.45825616       4.32009163        7       1.00000000       0.02928088      -0.07755459      -0.27412900
Ni       1.28337370       3.68706966       4.33618418        7       1.00000000       0.00942331      -0.01415985      -0.12961981
Ni       3.81526353       3.68905868       4.32999172        7       1.00000000      -0.16408471      -0.02440445      -0.20666665
Pt       6.54397287       3.67519396       4.32928593        7       0.00000000       0.10636914      -0.04310326      -0.13076794
Ni       9.09826945       3.69451100       4.30718914        7       1.00000000       0.21602535       0.02386398      -0.17079970
Ni       2.54134515       5.85172809       4.39304623        8       1.00000000      -0.07827711      -0.06987681      -0.01424542
Pt       5.19079660       5.89040656       4.36940439        8       0.00000000       0.07312310       0.04716290      -0.06903748
Ni       7.76670951       5.86880946       4.32099510        7       1.00000000       0.02846467      -0.00017329      -0.18819974
Ni      10.38750446       5.84080380       4.34568738        7       1.00000000       0.09343804      -0.03233032      -0.05002501
Pt       3.83975387       8.08068880       4.27081173        7       0.00000000      -0.08351420       0.01555560       0.00501991
Ni       6.46700053       8.11316480       4.26317665        7       1.00000000      -0.06182261       0.17065797      -0.31598923
Pt       9.00785663       8.05534240       4.23158451        6       0.00000000      -0.05058046      -0.01080615       0.01979826
Ni      11.65533780       8.05477099       4.27562875        7       1.00000000      -0.06087823      -0.14501012      -0.14563856
Pt      -0.02157427      -0.10786124       6.56353470       11       0.00000000       0.04719115       0.11135123       0.19003721
Pt       2.56029154      -0.06626175       6.54692021       10       0.00000000      -0.00428430       0.13891147       0.24281635
Pt       5.18870154      -0.06348697       6.56243133       11       0.00000000       0.04060834      -0.01360090       0.25186308
Pt       7.73755546      -0.08724469       6.54153661       10       0.00000000      -0.09414166       0.07853934       0.22554065
Pt       1.27159479       2.27608887       6.41205376        9       0.00000000       0.03446546      -0.01619732       0.39149705
Pt       3.90050550       2.28753864       6.44099475        9       0.00000000      -0.07070710       0.12964936       0.42429433
Ni       6.46498150       2.21571014       6.43769997        9       1.00000000      -0.01616970      -0.01754693       0.15966656
Pt       9.00173606       2.26936231       6.36967143        9       0.00000000       0.02132175      -0.06856807       0.46692198
Ni       2.56877414       4.46501025       6.46671611       10       1.00000000       0.06433652      -0.00207421      -0.36075852
Ni       5.17702904       4.42627588       6.41166820        9       1.00000000      -0.00540800      -0.01027850       0.23685211
Ni       7.72310229       4.40248546       6.47710217       10       1.00000000      -0.10317660       0.00894748      -0.13891316
Ni      10.37920445       4.42495411       6.44118459        9       1.00000000       0.08238277      -0.02788794      -0.30496020
Ni       3.84862910       6.53829426       6.48742675       10       1.00000000      -0.02868337      -0.08263731      -0.22070626
Ni       6.46298282       6.55177772       6.41005443        9       1.00000000       0.12865604      -0.01459143       0.17594492
Pt       9.06445741       6.47615381       6.47683749       10       0.00000000      -0.00835468      -0.04124181       0.03269238
Ni      11.67214484       6.54050718       6.43405714        9       1.00000000      -0.00187060       0.01899527      -0.34638475
