64
Lattice="9.984153237007265 0.00025203010281191814 0.012646184465507445 4.992294882975183 8.658932347677174 0.0028314918556296854 0.010325566377868198 -0.0032919124051438565 8.545693918329974" Properties=species:S:1:pos:R:3:tags:I:1:initial_magmoms:R:1:forces:R:3 unique_id=8fd651c4becf46fa9f8037d4e0cfefd1 stress="0.0006578362442375835 4.459435126208579e-06 -1.6277216105687683e-05 4.459435126208579e-06 0.0006614463653344879 6.023052632510344e-06 -1.6277216105687683e-05 6.023052632510344e-06 0.0005965377047912057" energy=-384.0777255262743 pbc="T T T"
Pt       0.06454463      -0.07165155       0.04300006        4       0.00000000       0.08226758      -0.07504826      -0.24749302
Ni       2.55884801       0.00519790       0.11753451        4       1.00000000       0.15609040       0.02349839       0.12928605
Ni       4.98701093       0.00507272       0.20741312        4       1.00000000      -0.00351566      -0.00057366       0.21131081
Ni       7.42906388      -0.03917317       0.18783865        4       1.00000000      -0.07791305      -0.03226265       0.30831677
Ni       1.32242303       2.16538537       0.10726899        4       1.00000000       0.09615345      -0.00600141       0.13031931
Ni       3.74984886       2.16797526       0.11340545        4       1.00000000       0.01857189      -0.01564421       0.10252620
Ni       6.16950390       2.17401477       0.11807892        4       1.00000000      -0.18784534      -0.02270646       0.11621459
Pt       8.66910703       2.18419232       0.05939599        4       0.00000000      -0.07131589      -0.01393436      -0.18551642
Ni       2.55583909       4.33030063       0.10748935        4       1.00000000       0.09333752      -0.03702803       0.10934469
Ni       4.98980606       4.32655292       0.11187053        4       1.00000000      -0.01205905      -0.03696595       0.13741845
Ni       7.42696443       4.36898881       0.11818532        4       1.00000000      -0.01205825       0.02862159       0.10910128
Pt      10.03067632       4.40196257       0.20965723        4       0.00000000       0.05048918       0.11161072       0.31922815
Ni       3.72781461       6.44122522       0.11393604        4       1.00000000       0.01202858      -0.08539217       0.19745072
Ni       6.26657331       6.44049161       0.11663890        4       1.00000000       0.07100718      -0.08761333       0.16230142
Ni       8.71635239       6.54032920       0.20747782        4       1.00000000       0.02176968       0.11849707       0.22221051
Ni      11.26424314       6.53670339       0.13139554        4       1.00000000       0.04973728       0.08247265       0.15055329
Ni       1.31426218       0.72661128       2.18645019        3       1.00000000       0.07128096      -0.01996370       0.05176747
Ni       3.74344791       0.72786118       2.16857111        3       1.00000000      -0.01771256       0.05707388       0.12942532
Ni       6.18628933       0.72445042       2.17683241        3       1.00000000      -0.08264848       0.03655302       0.17319497
Pt       8.72086042       0.69807214       2.25942564        3       0.00000000       0.06501244       0.03358064      -0.09672316
Ni       2.51936432       2.88598172       2.15954579        3       1.00000000       0.10636076      -0.00523083       0.05140123
Ni       4.97673596       2.88435985       2.15850244        3       1.00000000      -0.12635345       0.02823683       0.09640263
Ni       7.41563908       2.91797934       2.15672543        3       1.00000000      -0.20922496      -0.04347528      -0.09963662
Ni      10.05003470       2.87722176       2.19903414        3       1.00000000       0.18405669      -0.05915388      -0.08127418
Ni       3.73744331       5.03031910       2.13520479        3       1.00000000       0.00102992      -0.09567213       0.07325105
Ni       6.24316769       5.04484599       2.13601929        3       1.00000000      -0.04611388      -0.03860666       0.07265136
Ni       8.70304989       5.10060112       2.18621296        3       1.00000000      -0.03386904       0.14814344      -0.02837911
Ni      11.28162249       5.07390050       2.23214655        3       1.00000000       0.03826231      -0.04128189       0.11979834
Ni       5.01822912       7.16537328       2.16289143        3       1.00000000       0.03183488      -0.01605942      -0.03591669
Ni       7.49187345       7.22697674       2.16946614        3       1.00000000      -0.05947988       0.09965330       0.10767980
Ni       9.98798969       7.22005530       2.17488182        3       1.00000000       0.00713801       0.01412992       0.11399218
Ni      12.45499903       7.16841500       2.17845374        3       1.00000000       0.02983923      -0.06550696       0.18921060
Ni       0.06173615       1.42476934       4.27112129        2       1.00000000       0.16574150       0.05241493      -0.11363182
Ni       2.51146692       1.44146730       4.24621477        2       1.00000000       0.10821429      -0.00910255      -0.13645916
Ni       4.98120381       1.46958174       4.21085398        2       1.00000000      -0.11988574      -0.00036868      -0.12281351
Ni       7.43273411       1.43394862       4.25806832        2       1.00000000      -0.23120133      -0.04785949      -0.02474550
Ni       1.32463560       3.58403036       4.19844111        2       1.00000000       0.06176636      -0.03893073      -0.10702242
Ni       3.73395979       3.57161267       4.24816559        2       1.00000000      -0.00196176      -0.03985008      -0.17028359
Ni       6.20429839       3.57093565       4.25110378        2       1.00000000      -0.12492316      -0.05322229      -0.15771529
Pt       8.70356516       3.59854320       4.17571008        2       0.00000000       0.07190713       0.06237152      -0.00665021
Ni       2.47048927       5.76336466       4.24952969        2       1.00000000      -0.00550580      -0.03102354      -0.02312233
Pt       4.98962660       5.75761224       4.24311284        2       0.00000000      -0.02493590      -0.08906247      -0.02204247
Ni       7.48704125       5.79788911       4.21183967        2       1.00000000      -0.02536788       0.09156780      -0.12991550
Ni      10.01923071       5.81638180       4.19945071        2       1.00000000      -0.05107430       0.03038973      -0.03394233
Ni       3.75244728       7.91887419       4.24842482        2       1.00000000      -0.04263363      -0.11403908      -0.00871111
Ni       6.27753554       7.96434161       4.24060151        2       1.00000000       0.08425244      -0.03143132      -0.23000089
Ni       8.72277751       7.95881295       4.19056871        2       1.00000000       0.02695823       0.05177960      -0.09406285
Ni      11.22983057       7.92162259       4.20613202        2       1.00000000      -0.03705498       0.04715240      -0.06163129
Ni       0.05785589      -0.00755896       6.20083099        1       1.00000000       0.04826511      -0.02729604      -0.32853852
Ni       2.44264263       0.03621706       6.30674605        1       1.00000000      -0.03767445       0.02552164      -0.12663880
Pt       4.96035716       0.07502250       6.33225105        1       0.00000000      -0.08842480       0.12442915       0.13880666
Pt       7.55573509      -0.01083271       6.33596803        1       0.00000000       0.04830051      -0.00258678       0.21144499
Ni       1.29413103       2.12042071       6.29662098        1       1.00000000       0.08254421      -0.02794895      -0.12935322
Ni       3.71998779       2.21601284       6.31048413        1       1.00000000      -0.05927325       0.11879480      -0.11904294
Ni       6.24085714       2.22610458       6.31432548        1       1.00000000      -0.02102931       0.06319475      -0.10776738
Ni       8.74697292       2.15096411       6.22787793        1       1.00000000       0.06370531      -0.01465050      -0.34042439
Ni       2.56594819       4.31926835       6.30702014        1       1.00000000       0.13001717       0.01525382      -0.14943691
Ni       4.99232770       4.30595115       6.34287068        1       1.00000000      -0.01960857      -0.05150640      -0.00990674
Ni       7.42585501       4.30218380       6.33134999        1       1.00000000      -0.07986079       0.00085345      -0.13295250
Pt      10.06658528       4.28468167       6.28133496        1       0.00000000       0.08872360      -0.07449034      -0.23487978
Ni       3.75835763       6.45286552       6.33944848        1       1.00000000      -0.01500515      -0.09078493       0.01175513
Ni       6.19785636       6.49720381       6.33991036        1       1.00000000      -0.14033342       0.02984375      -0.02525707
Pt       8.66670976       6.48965815       6.33459742        1       0.00000000      -0.08795916       0.00432329       0.12373322
Ni      11.28336157       6.47460521       6.31751840        1       1.00000000      -0.01284093       0.04231334      -0.14820946
