64
Lattice="10.429267778215943 0.04387163627060463 0.00862314729953551 5.252627840623906 9.102254242732544 0.009556875284399765 0.007040770286906849 0.004945317806956236 8.977171282492652" Properties=species:S:1:pos:R:3:tags:I:1:initial_magmoms:R:1:forces:R:3 unique_id=eb8fd5633e854a368c65498e5664fa64 stress="-0.0006205266955775987 -6.827497098086551e-06 8.012946246502222e-06 -6.827497098086551e-06 -0.0006334301691501704 -5.178362017162264e-07 8.012946246502222e-06 -5.178362017162264e-07 -0.0005122733716945022" energy=-406.3939052244707 pbc="T T T"
Ni      -0.00605486       0.01202763       0.15551971        4       1.00000000      -0.09906740       0.02326438       0.23184225
Ni       2.61588986      -0.01050473       0.15807761        4       1.00000000       0.09638171      -0.14752575       0.23885525
Ni       5.22477263       0.00467839       0.13637494        4       1.00000000       0.06756585      -0.01819604       0.21744760
Ni       7.82972560       0.05127799       0.07410558        4       1.00000000       0.04003212       0.10356297       0.05753989
Ni       1.30401490       2.25091357       0.04854682        4       1.00000000      -0.01409452      -0.11129850       0.00176857
Ni       3.92042241       2.26778993       0.14185779        4       1.00000000       0.01590217      -0.03564968       0.24308020
Pt       6.50129026       2.23755210       0.13630062        4       0.00000000       0.01370499      -0.03278680       0.06082179
Ni       9.15466240       2.27560439       0.07031274        4       1.00000000      -0.06647680      -0.10288506       0.04303497
Pt       2.60905372       4.52168249      -0.00614841        4       0.00000000       0.00431571       0.01011899      -0.24300690
Ni       5.25292174       4.55171046       0.15115690        4       1.00000000       0.11854502      -0.07852735       0.25457703
Pt       7.84735984       4.61418004       0.04864036        4       0.00000000       0.01295041      -0.00747886      -0.17002850
Ni      10.44272047       4.59008065       0.12799414        4       1.00000000      -0.08270796       0.07878769       0.20279003
Pt       4.00021698       6.88784842       0.12229197        4       0.00000000       0.13155777       0.05968258       0.13815376
Ni       6.57339333       6.86659265       0.18951523        4       1.00000000       0.13137204       0.11114587       0.32112397
Ni       9.15275987       6.86737921       0.07297055        4       1.00000000      -0.06818531       0.03605367       0.04846741
Ni      11.73843824       6.88196501       0.05750250        4       1.00000000       0.00273040       0.06812143      -0.01118521
Pt       1.26827023       0.68304514       2.15969438        3       0.00000000      -0.01114476       0.03456500       0.05845721
Pt       3.97764149       0.78668633       2.20221717        3       0.00000000       0.06303339       0.00682848       0.14749678
Ni       6.53029317       0.80556522       2.27634079        3       1.00000000       0.00906941       0.10200670       0.07653587
Ni       9.11073551       0.80022884       2.22251522        3       1.00000000      -0.08515247       0.08875919      -0.08850580
Pt       2.64076687       3.01563377       2.21525722        3       0.00000000      -0.09374294       0.07280086      -0.08156438
Ni       5.25551390       3.03541322       2.27054140        3       1.00000000       0.06193003      -0.06148664       0.04162311
Pt       7.76830913       3.02495291       2.36617499        3       0.00000000      -0.09867055       0.02324687      -0.06694580
Pt      10.39163009       3.03401387       2.18404384        3       0.00000000      -0.10303371       0.01806665      -0.11890465
Pt       4.03987873       5.30522549       2.23745948        3       0.00000000      -0.03105825       0.05723526      -0.13749311
Ni       6.55639851       5.34380319       2.24986956        3       1.00000000       0.04796548       0.00478281      -0.06840286
Pt       9.06558007       5.37314162       2.32364343        3       0.00000000      -0.03366478      -0.06209773       0.07155651
Pt      11.74282852       5.37237477       2.23201454        3       0.00000000       0.02254814      -0.01222483      -0.12141567
Ni       5.28979722       7.58540919       2.23353640        3       1.00000000       0.06165176      -0.07074687      -0.00600408
Ni       7.82146379       7.57837139       2.22800409        3       1.00000000      -0.03867975      -0.05252570      -0.02043386
Pt      10.43573854       7.62325600       2.18639916        3       0.00000000      -0.06611310      -0.06008880      -0.04899227
Pt      13.08831248       7.73367701       2.22533853        3       0.00000000       0.06212285       0.02186304      -0.17199630
Pt      -0.08230434       1.58373315       4.49119331        2       0.00000000      -0.11620711       0.03275076      -0.03321195
Pt       2.62853319       1.51326497       4.46989695        2       0.00000000       0.02755945      -0.05734519       0.07291098
Ni       5.26947774       1.55168611       4.44789667        2       1.00000000       0.07507167       0.03019659      -0.09946766
Ni       7.81046973       1.58355946       4.45610879        2       1.00000000      -0.06008876       0.03164877      -0.11759237
Pt       1.25837714       3.80932711       4.51378462        2       0.00000000      -0.11192755       0.04785654      -0.05746015
Pt       4.01655710       3.76378302       4.44663503        2       0.00000000       0.11499154      -0.09416013       0.02302193
Ni       6.59489706       3.79755954       4.46645320        2       1.00000000       0.08504878      -0.00530085       0.00154499
Ni       9.08214714       3.85367240       4.50717527        2       1.00000000      -0.11776495       0.05521212      -0.00292473
Pt       2.56969749       6.06549902       4.50203200        2       0.00000000       0.02227808       0.07418083      -0.09692378
Pt       5.34691945       6.03413022       4.40492379        2       0.00000000       0.13413535      -0.05967304       0.06033797
Ni       7.89289173       6.02974681       4.48846880        2       1.00000000       0.06735997      -0.11275950       0.06677719
Ni      10.40858535       6.08670065       4.51114372        2       1.00000000      -0.08268929      -0.07025544      -0.00993470
Pt       3.93476133       8.39985474       4.43604671        2       0.00000000       0.08090398      -0.00639511      -0.04298425
Pt       6.57394332       8.31138069       4.41175246        2       0.00000000      -0.00105059      -0.03235698       0.06634417
Pt       9.17436136       8.27788723       4.47752436        2       0.00000000      -0.02597744      -0.07529102       0.01824774
Pt      11.76498852       8.44576288       4.48657934        2       0.00000000      -0.04184913       0.10450162      -0.00934706
Pt      -0.05249376       0.08486627       6.75060869        1       0.00000000      -0.05985771       0.10948522       0.15671143
Pt       2.60716526       0.00583878       6.76059432        1       0.00000000      -0.01144994       0.01394825       0.15604995
Pt       5.26728650      -0.03676687       6.74001353        1       0.00000000       0.04349508      -0.06885583       0.11047425
Ni       7.82495582       0.04659547       6.68084379        1       1.00000000       0.02333234       0.01763728      -0.15021519
Ni       1.29325442       2.30875204       6.69452802        1       1.00000000      -0.07921789       0.10115174      -0.11242798
Pt       3.88538030       2.31405514       6.73287319        1       0.00000000      -0.02966047       0.00469174       0.08279445
Pt       6.63068979       2.29134305       6.56215113        1       0.00000000       0.05902950      -0.04112088      -0.15000348
Ni       9.13894009       2.34161751       6.67455975        1       1.00000000       0.02447766       0.17327209      -0.12196510
Ni       2.59720378       4.55200787       6.59568193        1       1.00000000      -0.06734648      -0.00822005      -0.38806643
Pt       5.26468470       4.55808793       6.71378112        1       0.00000000       0.03241005      -0.00684078       0.10523103
Ni       7.87523563       4.56623809       6.57308989        1       1.00000000       0.00638858      -0.05979844      -0.30674851
Pt      10.40070354       4.61146536       6.70252531        1       0.00000000      -0.05046477      -0.00605302       0.11180563
Pt       3.87048609       6.84752984       6.64460393        1       0.00000000      -0.04923859      -0.00032793      -0.31205182
Pt       6.63326109       6.79655784       6.71817520        1       0.00000000       0.07721761      -0.01633289       0.18120065
Ni       9.18350207       6.82323125       6.67749886        1       1.00000000       0.05852075      -0.02491667      -0.12908903
Ni      11.73568043       6.84418197       6.68944589        1       1.00000000      -0.09901667      -0.11790363      -0.17333098
