64
Lattice="10.35229090086611 0.004319827550768875 0.02191326263606268 5.179886530831982 8.939481987562928 0.023832553764685394 0.0 0.0 21.575335320303182" Properties=species:S:1:pos:R:3:tags:I:1:initial_magmoms:R:1:forces:R:3 unique_id=68bab699679b4951a45cdb72b050e1c2 stress="0.005726014015134497 0.00019771561164539747 0.00035624242273694077 0.00019771561164539747 0.005695993281015588 0.0002589543976344253 0.00035624242273694077 0.0002589543976344253 -0.0018738741802386341" energy=-377.3407275264532 pbc="T T T"
Ni      -0.01293990       0.02721709       0.12095796        1       1.00000000      -0.02627597       0.05625117       0.05418875
Ni       2.58962105       0.00727823       0.13238405        1       1.00000000      -0.00146756       0.02861044      -0.02574967
Ni       5.17858745      -0.01494410       0.09572973        1       1.00000000      -0.01513943       0.18925539      -0.30679205
Ni       7.78988896      -0.03498240       0.04811543        0       1.00000000       0.03322774      -0.04878047       0.44960949
Ni       1.28171562       2.22851534       0.01314991        0       1.00000000       0.01698994      -0.09678699       0.28453504
Pt       3.81772848       2.23736734       0.12577048        1       0.00000000       0.01869125      -0.03795643      -0.52317482
Pt       6.47899337       2.16300640       0.09115625        1       0.00000000      -0.10085341      -0.12338538      -0.67362890
Ni       9.09323262       2.20310201       0.08293346        1       1.00000000      -0.00997071      -0.14385065      -0.06997461
Ni       2.57540400       4.48407786       0.00000000        0       1.00000000      -0.02155173      -0.00861959       0.20893717
Ni       5.17260987       4.47580653       0.10299944        1       1.00000000       0.17631568      -0.09045798      -0.25041705
Pt       7.84234182       4.50287427       0.01326649        0       0.00000000       0.00068103       0.04753393      -0.07403785
Ni      10.39070187       4.48394402       0.00346028        0       1.00000000       0.03873095       0.02996859       0.22224754
Ni       3.85758764       6.73298374       0.11447359        1       1.00000000      -0.04469704       0.19787396      -0.07531960
Pt       6.45620864       6.76704304       0.14900121        1       0.00000000      -0.05878377       0.07698656      -0.53263745
Ni       9.09118255       6.72629660       0.03064198        0       1.00000000      -0.05439454      -0.00800654       0.21783767
Ni      11.66614115       6.71923649       0.01780614        0       1.00000000       0.11709363       0.07155483       0.27651731
Ni       1.30256239       0.72943608       2.10093583        2       1.00000000       0.04759102      -0.05634921      -0.06954947
Ni       3.88034701       0.75387080       2.15699737        3       1.00000000       0.05731194      -0.00883364       0.19381424
Ni       6.47993112       0.72962839       2.18675948        3       1.00000000       0.03610821       0.01331635       0.21580865
Ni       9.06120038       0.71273146       2.13429410        2       1.00000000      -0.04446991      -0.08007660      -0.01862093
Ni       2.59496673       2.97353832       2.16435772        3       1.00000000      -0.01849002       0.07764720       0.10500369
Ni       5.16053343       2.96050923       2.19817929        3       1.00000000      -0.01247605      -0.11571595       0.34357194
Pt       7.78579210       2.95220316       2.21928315        3       0.00000000       0.05014630      -0.06573714       0.06466133
Pt      10.38660343       2.91958642       2.14606716        2       0.00000000       0.13973955      -0.01397532       0.05323805
Pt       3.90754962       5.20362095       2.11561667        2       0.00000000       0.00841101      -0.06212924       0.01375590
Ni       6.50294288       5.22975454       2.17757600        3       1.00000000       0.13234768      -0.04615218       0.21451072
Ni       9.04449300       5.24440688       2.20787808        3       1.00000000      -0.06786702      -0.00814218       0.21538152
Pt      11.64961901       5.23871717       2.13638586        2       0.00000000      -0.04707374      -0.00723845       0.04169379
Ni       5.16461117       7.49757344       2.14485471        2       1.00000000      -0.10460259       0.08149970       0.04107213
Ni       7.77354264       7.45580419       2.16996266        3       1.00000000       0.06263631      -0.04622049       0.11834372
Pt      10.33237763       7.47735196       2.09575651        2       0.00000000      -0.02561460      -0.01085715      -0.03332979
Ni      12.96745764       7.49361117       2.14469477        2       1.00000000      -0.02520432       0.09445233      -0.04897868
Ni      -0.01310568       1.53115613       4.31024566        5       1.00000000      -0.01690620       0.07412640      -0.18801516
Pt       2.60100728       1.54120397       4.21668108        4       0.00000000      -0.01811253       0.01556298      -0.10845372
Ni       5.19438373       1.50514346       4.28698646        5       1.00000000      -0.01039367       0.00195890      -0.39972602
Ni       7.79792564       1.50137234       4.31809669        5       1.00000000       0.02568510       0.01690886      -0.21643981
Pt       1.27330014       3.78567519       4.40856298        6       0.00000000      -0.04696594      -0.01277187       0.02870082
Ni       3.88551287       3.74044183       4.30771240        5       1.00000000       0.00270137      -0.00030272      -0.26022696
Pt       6.50248400       3.72459830       4.29781413        5       0.00000000      -0.07448778       0.00676236       0.00843147
Ni       9.07848357       3.76512046       4.35744286        6       1.00000000       0.01099229       0.06713575      -0.22018488
Ni       2.56934704       5.94856230       4.35439532        6       1.00000000      -0.01946261       0.01399121      -0.14062179
Pt       5.16377879       5.94710962       4.27084848        5       0.00000000      -0.07614479       0.07707461      -0.10598544
Ni       7.83932845       5.92160243       4.32206585        5       1.00000000       0.10212754      -0.08205182      -0.28307041
Ni      10.33963289       5.94215367       4.39510258        6       1.00000000      -0.04875507       0.03172785      -0.08266117
Pt       3.87014228       8.25886632       4.25681578        5       0.00000000       0.00731903       0.10192320      -0.10710056
Pt       6.47747562       8.21401342       4.22273321        4       0.00000000      -0.01242888       0.05767384      -0.19164368
Pt       9.07583267       8.14296269       4.32019553        5       0.00000000      -0.07396534      -0.02222756      -0.01472065
Pt      11.67803526       8.19149878       4.33139225        5       0.00000000      -0.02532026      -0.02786264      -0.02246837
Pt      -0.01763992       0.04578374       6.54580716        8       0.00000000       0.03506436      -0.01335098       0.09556352
Pt       2.60249456       0.01085099       6.57533532        9       0.00000000       0.05227714      -0.05066120       0.30719729
Pt       5.23066091      -0.08654443       6.56456135        9       0.00000000      -0.09447510       0.06780032       0.31560441
Ni       7.76990529       0.00533392       6.51594622        8       1.00000000       0.03777353       0.04666937      -0.14900110
Ni       1.29211515       2.29236978       6.50837603        8       1.00000000      -0.00887630      -0.02529604      -0.14850259
Pt       3.83483764       2.28790821       6.44575604        7       0.00000000       0.20194311      -0.08914459       0.51032515
Pt       6.52480741       2.20324136       6.43932956        7       0.00000000      -0.07768220      -0.10082376       0.77271178
Pt       9.11885724       2.33368639       6.49584619        8       0.00000000       0.02135821       0.14143249      -0.07056955
Ni       2.53323616       4.48956995       6.50443647        8       1.00000000      -0.03225905       0.07318288      -0.12530685
Pt       5.16590657       4.47858367       6.55320158        9       0.00000000      -0.04356529      -0.05304706       0.38959437
Ni       7.83732321       4.49789104       6.42064086        7       1.00000000       0.10911058       0.06639691       0.07071745
Ni      10.36883748       4.52701545       6.51460005        8       1.00000000      -0.08282850       0.14176381      -0.27007715
Pt       3.76268641       6.70983191       6.55943557        9       0.00000000      -0.00281508      -0.04749192       0.04502426
Pt       6.55779565       6.66607655       6.47382750        8       0.00000000       0.01415550      -0.02636689       0.47043109
Ni       9.11496194       6.63916565       6.51213759        8       1.00000000       0.03490904      -0.14386798      -0.25715884
Ni      11.62732937       6.65710868       6.52344974        8       1.00000000      -0.14706201      -0.19250360      -0.28488469
