64
Lattice="10.761037849662902 0.004118962149985316 0.008294423229891884 5.384086050690567 9.324796530642336 -0.0034112384073747113 0.006772368207974189 -0.0071261750213900445 9.415970172503057" Properties=species:S:1:pos:R:3:tags:I:1:initial_magmoms:R:1:forces:R:3 unique_id=3e2119dd6a7d4ad6a241a8764381b7ac stress="-6.29494635076902e-05 7.215113931515451e-07 -1.5174511476172882e-07 7.215113931515451e-07 -6.173549684693191e-05 7.498276815780148e-07 -1.5174511476172882e-07 7.498276815780148e-07 -2.2682777838067825e-05" energy=-430.40455356792233 pbc="T T T"
Pt       0.01234983      -0.02412962       0.08827221        4       0.00000000       0.00182654      -0.02064797       0.08182284
Pt       2.67387514      -0.02274813       0.09738383        4       0.00000000      -0.03255980      -0.01805752       0.12283070
Pt       5.37859545       0.00102643       0.09740751        4       0.00000000       0.00723917       0.00115544       0.13243632
Pt       8.07785729       0.00104826       0.09323385        4       0.00000000       0.03703629      -0.01140975       0.06183265
Pt       1.35636369       2.35379960       0.08718296        4       0.00000000      -0.01862680       0.02661914       0.08620886
Pt       4.02307040       2.36379688       0.09774474        4       0.00000000      -0.00403705       0.08310388       0.10013565
Pt       6.73463668       2.34371154       0.10290632        4       0.00000000       0.03252270       0.03532280       0.06185851
Pt       9.41456110       2.34177816       0.04743315        4       0.00000000       0.01691129       0.01867454       0.01150386
Ni       2.69500666       4.66448761       0.08089434        4       1.00000000       0.01760480       0.00881733       0.31687399
Pt       5.36908263       4.68939167       0.09709854        4       0.00000000       0.00383903       0.03480297       0.04263702
Pt       8.06029215       4.67871087       0.10306626        4       0.00000000      -0.00252846       0.00210833       0.03676118
Pt      10.78568050       4.66228141       0.09338096        4       0.00000000       0.01002541      -0.02140108       0.04393092
Pt       4.05403375       6.96626086       0.09044178        4       0.00000000       0.02284829      -0.03278140       0.04916567
Ni       6.72758996       6.99372640       0.08803933        4       1.00000000      -0.01024252      -0.02413744       0.35788696
Pt       9.38985055       6.98941195       0.09624927        4       0.00000000      -0.03147774      -0.06334322       0.11712345
Pt      12.12776416       6.96641767       0.09564305        4       0.00000000       0.05319980      -0.06412397       0.06316778
Pt       1.33806015       0.78313451       2.37835360        3       0.00000000      -0.08832780       0.07609070       0.17222487
Pt       4.04277742       0.78072180       2.38200027        3       0.00000000       0.02589258       0.02594699       0.12633771
Pt       6.75787484       0.81719618       2.40909019        3       0.00000000       0.09260559       0.11398020       0.17870846
Pt       9.39101289       0.82292729       2.41556693        3       0.00000000      -0.07256924       0.12135590       0.17370798
Pt       2.68857550       3.12030683       2.35159247        3       0.00000000      -0.03673742      -0.00574920       0.07153377
Pt       5.42548938       3.11191281       2.38313110        3       0.00000000       0.10402020       0.02768534       0.11074661
Ni       8.07919260       3.10564832       2.39405977        3       1.00000000       0.04796100      -0.01612814       0.17882523
Pt      10.71006769       3.11177775       2.41506617        3       0.00000000      -0.17986192       0.00506977       0.18916798
Pt       4.03324011       5.42870496       2.34602046        3       0.00000000      -0.00679001      -0.02486834       0.06115241
Pt       6.74470202       5.41879303       2.35789681        3       0.00000000       0.00609163      -0.04991685       0.06133621
Pt       9.40176309       5.39587733       2.40233438        3       0.00000000      -0.04481838      -0.14502883       0.18314782
Pt      12.11323549       5.42867619       2.35536160        3       0.00000000      -0.04001637      -0.03336056       0.03645680
Pt       5.39486454       7.76161326       2.34596988        3       0.00000000      -0.00464326      -0.00231203       0.04697719
Pt       8.06387456       7.75322744       2.35508631        3       0.00000000      -0.00755852      -0.05840925       0.08537176
Pt      10.76454981       7.76670231       2.38313698        3       0.00000000      -0.00164689      -0.03322747       0.12060616
Pt      13.46060834       7.78210652       2.37924388        3       0.00000000       0.03420139       0.06460318       0.08699687
Pt      -0.08215658       1.59984125       4.71464739        2       0.00000000      -0.28318961       0.17238775       0.06231491
Pt       2.68373234       1.55365775       4.68946857        2       0.00000000      -0.09372719       0.01817931      -0.11882339
Pt       5.42738137       1.55911465       4.68561366        2       0.00000000       0.07534722       0.04413313      -0.07157155
Ni       8.08835618       1.57707964       4.70603714        2       1.00000000       0.06372305       0.13422053      -0.05494792
Pt       1.31194169       3.87724571       4.67756107        2       0.00000000      -0.04938858      -0.00875133      -0.14559434
Pt       4.04586035       3.88228758       4.67935755        2       0.00000000       0.05145710       0.00918431      -0.12069221
Pt       6.81299714       3.83577607       4.66090913        2       0.00000000       0.30611539      -0.15919872      -0.27430828
Ni       9.40666315       3.86068568       4.70761768        2       1.00000000      -0.08286150      -0.11403230      -0.04059539
Pt       2.69162823       6.21015551       4.67779266        2       0.00000000       0.00095907      -0.03121038      -0.12046871
Pt       5.39916596       6.20968784       4.67932183        2       0.00000000       0.07547650      -0.04867661      -0.13955563
Pt       8.08870245       6.17617851       4.67985215        2       0.00000000      -0.01108469      -0.06848246      -0.08619063
Pt      10.74757338       6.18426244       4.68862125        2       0.00000000      -0.03392590      -0.06696327      -0.12538221
Pt       4.02627640       8.58349808       4.68101534        2       0.00000000      -0.00675847       0.06285227      -0.15603821
Pt       6.72403459       8.54614179       4.67911433        2       0.00000000      -0.05495069       0.01948566      -0.12918628
Pt       9.42821622       8.54264338       4.68396995        2       0.00000000      -0.00709591      -0.01640420      -0.13092563
Pt      12.13113477       8.57733292       4.68436114        2       0.00000000       0.03442778       0.03291389      -0.11935199
Pt      -0.01110843       0.02379871       6.96489745        1       0.00000000      -0.02374115       0.05442194      -0.10277380
Pt       2.68801720      -0.00471330       6.97904492        1       0.00000000      -0.03463222       0.00930684      -0.08904876
Pt       5.39163097       0.00176666       6.97184965        1       0.00000000       0.02737449       0.02432261      -0.09170591
Pt       8.09340440       0.03913246       6.95523149        1       0.00000000       0.06541742       0.11384840      -0.13187162
Pt       1.31543563       2.33028522       6.96466349        1       0.00000000      -0.06966783       0.01047162      -0.09349934
Pt       4.04246695       2.33032911       6.97247944        1       0.00000000       0.02104338       0.02126513      -0.10800752
Pt       6.78089371       2.32642620       6.94826754        1       0.00000000       0.13352544       0.01343847      -0.11445000
Ni       9.41783883       2.33089346       6.96644052        1       1.00000000      -0.04026435       0.02785260      -0.35572252
Pt       2.68924041       4.65310970       7.03785725        1       0.00000000      -0.04097239      -0.01599414       0.00821826
Pt       5.39449726       4.65591797       6.97464308        1       0.00000000       0.07593854      -0.03243043      -0.14900107
Pt       8.10229798       4.62229818       6.95015347        1       0.00000000       0.05664868      -0.09076363      -0.12338476
Pt      10.74417112       4.62469939       6.95782033        1       0.00000000      -0.06285064      -0.10387042      -0.12998138
Pt       4.04391775       6.99430542       6.97213758        1       0.00000000       0.00203516       0.03566595      -0.13320438
Pt       6.73453187       6.98821888       7.04129473        1       0.00000000      -0.00222530      -0.02255618       0.03487651
Pt       9.41840487       6.98222273       6.97423359        1       0.00000000      -0.01842822      -0.04093460      -0.08273416
Pt      12.11420816       6.98955206       6.97027135        1       0.00000000      -0.00510812      -0.00411522      -0.13586627
