64
Lattice="10.779695423688192 -0.0037190528601295644 0.002367355621785305 5.386626917589206 9.338657446211613 0.004889146774484421 0.0 0.0 21.952402640861834" Properties=species:S:1:pos:R:3:tags:I:1:initial_magmoms:R:1:forces:R:3 unique_id=5a5ff8fd10d9403092bb5cbf5f523ff5 energy=-406.0212967607297 stress="0.002244044152826301 2.9270737285265957e-05 4.66399543274187e-05 2.9270737285265957e-05 0.0022787142238201476 -6.345793815871922e-05 4.66399543274187e-05 -6.345793815871922e-05 -0.002394908355905126" pbc="T T T"
Pt      -0.01043741       0.00721331       0.06743190        1       0.00000000      -0.14606466       0.10321310      -0.21610541
Pt       2.69200005      -0.00001333       0.05105047        1       0.00000000      -0.01999649       0.01270909      -0.29197062
Pt       5.39494427       0.00080351       0.05481788        1       0.00000000       0.04243645       0.02848862      -0.23349738
Pt       8.09399983       0.00490972       0.07114590        1       0.00000000       0.13082941       0.07039375      -0.24715924
Pt       1.34284899       2.33472705       0.05145759        1       0.00000000      -0.03080128       0.05382314      -0.26071068
Pt       4.04395139       2.33525865       0.05063421        1       0.00000000       0.01473234       0.03720259      -0.31522148
Pt       6.74861571       2.33948327       0.06309162        1       0.00000000       0.09884533       0.07848252      -0.21088833
Pt       9.41988794       2.33049486       0.08760075        1       0.00000000      -0.11282822      -0.07527011      -0.00897161
Pt       2.69346552       4.66986448       0.04699653        0       0.00000000      -0.00857462      -0.00659499      -0.38322413
Pt       5.39353373       4.66829538       0.04592707        0       0.00000000      -0.04254371       0.00384494      -0.32357304
Pt       8.08498691       4.65771380       0.00000000        0       0.00000000       0.03377493      -0.12970646       0.15058625
Pt      10.76975022       4.66232954       0.05033724        1       0.00000000       0.02518346      -0.02858545      -0.13987032
Pt       4.03935560       7.00639298       0.05151822        1       0.00000000      -0.00478064      -0.02830361      -0.37726439
Pt       6.73423471       6.99897083       0.05124223        1       0.00000000      -0.03365824      -0.00686640      -0.23534358
Pt       9.42811759       6.99694943       0.04691193        0       0.00000000       0.01719477      -0.02965475      -0.25531197
Pt      12.12679981       7.00305705       0.05363959        1       0.00000000       0.01535453      -0.01867330      -0.32812627
Pt       1.30630235       0.78611098       2.34460140        2       0.00000000      -0.13032689       0.06926830       0.51669124
Pt       4.04877573       0.78086933       2.34271523        2       0.00000000       0.06161211       0.02567630       0.54302824
Pt       6.80163209       0.81578908       2.34506059        2       0.00000000       0.21883206       0.14523057       0.48863720
Ni       9.42428800       0.79221977       2.32507672        2       1.00000000      -0.03841804       0.08637196       0.52323520
Pt       2.68446500       3.11067767       2.34581426        2       0.00000000      -0.09858228      -0.01492721       0.57318452
Pt       5.42971380       3.10894025       2.34462874        2       0.00000000       0.13376686      -0.00364638       0.55576642
Ni       8.09648677       3.10251604       2.34108505        2       1.00000000       0.04720437      -0.02752428       0.49106772
Pt      10.70582959       3.08195009       2.36667688        3       0.00000000      -0.24372926      -0.07959187       0.51616645
Pt       4.04765627       5.45044420       2.34104807        2       0.00000000       0.06754062       0.01696427       0.54572357
Pt       6.76018188       5.41411891       2.34882540        2       0.00000000       0.07211700      -0.08713579       0.49396025
Pt       9.40962420       5.39440514       2.37123482        3       0.00000000      -0.09523646      -0.18891789       0.53755241
Pt      12.11611184       5.43998030       2.34463717        2       0.00000000      -0.09010283      -0.04911082       0.53248085
Pt       5.37337252       7.80956847       2.34283664        2       0.00000000       0.00231634       0.00430354       0.52696933
Pt       8.07862727       7.77568416       2.34387551        2       0.00000000      -0.01956470      -0.09020657       0.54630732
Pt      10.78058482       7.78063863       2.34523874        2       0.00000000       0.01914677      -0.01015531       0.54855040
Pt      13.48785150       7.81499740       2.34597941        2       0.00000000       0.02037933       0.09119472       0.51336335
Pt      -0.03095554       1.58598820       4.62805561        4       0.00000000      -0.05889970       0.05009071      -0.50406561
Pt       2.68634813       1.56088205       4.65136365        5       0.00000000      -0.06800804       0.02286577      -0.54081029
Pt       5.40460475       1.56459145       4.65092652        5       0.00000000       0.11356262       0.06001270      -0.53786749
Pt       8.11323280       1.59836687       4.60280095        4       0.00000000       0.09022689       0.12686245      -0.67412817
Pt       1.30487698       3.88967805       4.65026851        5       0.00000000      -0.13032641      -0.04067908      -0.54933544
Pt       4.04925727       3.89195739       4.65342587        5       0.00000000       0.06893595      -0.00193245      -0.55439180
Pt       6.79949626       3.88873856       4.65804342        5       0.00000000       0.24515230      -0.01247462      -0.40015064
Ni       9.42231014       3.88838782       4.67105741        5       1.00000000      -0.06558181       0.00710029      -0.41843621
Pt       2.68979325       6.22793826       4.65146656        5       0.00000000      -0.02873590      -0.00947278      -0.52544373
Pt       5.39751387       6.22296261       4.65315746        5       0.00000000       0.05144568      -0.02902468      -0.55754603
Pt       8.10211832       6.17439904       4.68443272        5       0.00000000       0.06410407      -0.20638929      -0.31444110
Pt      10.75757511       6.19217980       4.65593799        5       0.00000000      -0.02267906      -0.05746734      -0.53548926
Pt       4.03872178       8.58463029       4.62993047        4       0.00000000      -0.01399542       0.12302353      -0.55708052
Pt       6.73467730       8.55947289       4.65887154        5       0.00000000       0.01176954      -0.03513487      -0.53083429
Pt       9.42845439       8.55089851       4.66029584        5       0.00000000      -0.01742676      -0.08720301      -0.54354558
Pt      12.12862143       8.56501394       4.65309554        5       0.00000000       0.01126721       0.05167775      -0.53398437
Pt      -0.00132024       0.00620174       6.94448179        6       0.00000000      -0.03317077       0.05234784       0.21294915
Pt       2.69660138      -0.00309904       6.94824861        6       0.00000000      -0.00436962      -0.05454041       0.39698600
Pt       5.39166143       0.00085718       6.94816010        6       0.00000000       0.01213640       0.01504130       0.36696813
Pt       8.08852033       0.00857109       6.94891158        6       0.00000000       0.01955121       0.13319711       0.19369450
Pt       1.34167204       2.34098841       6.94596789        6       0.00000000      -0.08392848       0.01191302       0.32038533
Pt       4.04735586       2.33820586       6.94788477        6       0.00000000       0.07217960       0.02207242       0.36839621
Pt       6.75858764       2.36655378       6.94660172        6       0.00000000       0.05596305       0.01067325       0.16396478
Pt       9.41341599       2.37340841       6.92832903        6       0.00000000      -0.06086710       0.15134625      -0.01235603
Pt       2.69173926       4.67088753       6.94335746        6       0.00000000      -0.02641659      -0.02202407       0.28130603
Pt       5.42447848       4.67050205       6.94466860        6       0.00000000       0.06849813      -0.02385812       0.23321967
Ni       8.08692542       4.66760617       6.95240264        7       1.00000000       0.02866721      -0.03497339      -0.38934139
Pt      10.73578451       4.66359126       6.93040174        6       0.00000000      -0.20233257      -0.09447177       0.16709819
Pt       4.04706312       7.00308324       6.95083415        7       0.00000000       0.06185619      -0.00388721       0.32252678
Pt       6.75403100       6.97582056       6.94566084        6       0.00000000       0.02237527      -0.03142897       0.27196529
Pt       9.41538838       6.97368977       6.94596611        6       0.00000000      -0.00773705      -0.01679519       0.30942781
Pt      12.11852505       6.99868175       6.94828193        6       0.00000000      -0.07927440      -0.02876338       0.29432781
