64
Lattice="9.886150002606096 -0.010753869206598491 0.02000575896132981 4.933761877381159 8.546249194956259 -0.0019550676063234055 0.016334633790789973 -0.011274060632372431 8.4442725241385" Properties=species:S:1:pos:R:3:tags:I:1:initial_magmoms:R:1:forces:R:3 unique_id=9c82512554514a8d84ea5d593b010fc4 stress="0.0003246310863629018 8.233896948735871e-07 -3.5630262189928595e-06 8.233896948735871e-07 0.00032386066154940774 -8.233328187307671e-07 -3.5630262189928595e-06 -8.233328187307671e-07 0.00029080131112422386" energy=-378.5390580249965 pbc="T T T"
Ni       0.00148776      -0.00309347       0.21750303        4       1.00000000       0.00191400      -0.01845577       0.16386886
Ni       2.47171128      -0.00821620       0.25149941        4       1.00000000      -0.01468285      -0.00692444       0.22307507
Ni       4.94597289      -0.00621288       0.11038672        4       1.00000000       0.01296200      -0.00602465      -0.02178301
Ni       7.41257491       0.02178618       0.08412767        4       1.00000000       0.01972838       0.04859757      -0.07773212
Ni       1.23213561       2.13562234       0.12232513        4       1.00000000       0.00182139      -0.03686906       0.05274689
Ni       3.71213113       2.13228928       0.11285216        4       1.00000000       0.02276339      -0.02664883       0.00120186
Ni       6.17606681       2.13560048       0.11180028        4       1.00000000       0.00342411       0.01654593       0.00989560
Ni       8.64687021       2.13341000       0.11742650        4       1.00000000       0.00297247      -0.00146346      -0.01727063
Ni       2.47099074       4.26440865       0.10242045        4       1.00000000       0.02453117      -0.00736098       0.01035143
Ni       4.94745504       4.26004322       0.10685975        4       1.00000000       0.03578226      -0.02798254       0.01734445
Ni       7.41108388       4.26302260       0.11381852        4       1.00000000       0.01067839      -0.01240208       0.01158964
Ni       9.87411325       4.25421537       0.12288312        4       1.00000000      -0.02420462      -0.02941167       0.01972079
Ni       3.73126796       6.38593314       0.06891880        4       1.00000000       0.07586806      -0.03569207      -0.05607390
Ni       6.18195569       6.39423773       0.11817317        4       1.00000000       0.04084857      -0.01254581       0.02406803
Ni       8.63540042       6.39519229       0.11635060        4       1.00000000      -0.03393148      -0.00743753       0.00441339
Ni      11.08918333       6.38471114       0.07062854        4       1.00000000      -0.02602037      -0.01659197      -0.10628474
Ni       1.21694689       0.70544124       2.12766316        3       1.00000000      -0.03431021       0.02137611       0.17504866
Ni       3.75435006       0.69771040       2.10763791        3       1.00000000       0.07338318       0.01948677       0.08895751
Ni       6.16734653       0.74507149       2.14063788        3       1.00000000       0.02933323       0.00827159      -0.01353421
Ni       8.65390627       0.74671368       2.15591478        3       1.00000000      -0.05903984       0.02578169       0.04972372
Ni       2.48979091       2.85501732       2.07273513        3       1.00000000       0.01601584      -0.01937906       0.03340648
Ni       4.95540241       2.84612640       2.13947539        3       1.00000000       0.00791026       0.00219707       0.02540173
Ni       7.40789152       2.84789884       2.14390084        3       1.00000000      -0.02140426       0.01293491       0.00150458
Ni       9.86011232       2.83347819       2.11594153        3       1.00000000      -0.03289817       0.00413879       0.01987066
Ni       3.73713017       4.94755364       2.12942196        3       1.00000000       0.00721005       0.00089542       0.00650224
Ni       6.18461226       4.97016974       2.14210923        3       1.00000000       0.00985092      -0.02570023       0.01273594
Ni       8.63645045       4.97343987       2.14241831        3       1.00000000      -0.01832532      -0.01028447       0.01151011
Ni      11.09018071       4.96368208       2.09648089        3       1.00000000      -0.02178980       0.01705395      -0.04544817
Ni       4.98297975       7.09921261       2.14131810        3       1.00000000       0.00921752      -0.04915201       0.07142991
Ni       7.41234725       7.09400195       2.15424441        3       1.00000000      -0.00075769      -0.03970959       0.11409169
Ni       9.83941691       7.11027396       2.13081847        3       1.00000000      -0.00376871      -0.00500708      -0.03538442
Pt      12.35170138       7.11302716       2.13474755        3       0.00000000       0.01884631       0.00394175      -0.09367573
Ni      -0.05469408       1.41611682       4.16098395        2       1.00000000      -0.00724730       0.00705751       0.03395408
Pt       2.51894606       1.39293091       4.15378592        2       0.00000000      -0.00010813      -0.00045409       0.11079130
Ni       5.01250206       1.41979553       4.20292643        2       1.00000000       0.02616990       0.02156000      -0.03801356
Ni       7.41277645       1.41794545       4.20358640        2       1.00000000      -0.00466206       0.01533578      -0.05610269
Pt       1.20347092       3.61980097       4.18190784        2       0.00000000       0.00442675      -0.01618359      -0.01771301
Ni       3.77347727       3.59436370       4.19520248        2       1.00000000      -0.01029250       0.00193693      -0.04931478
Ni       6.18660311       3.55515281       4.19845193        2       1.00000000      -0.00760459       0.00865336      -0.04562642
Ni       8.59196495       3.55913295       4.19905953        2       1.00000000      -0.01770776       0.02589206      -0.05971157
Ni       2.50000499       5.72269470       4.21858918        2       1.00000000       0.01102341       0.01307393      -0.09090255
Ni       4.95363723       5.68092331       4.18996011        2       1.00000000       0.00700161      -0.00108349      -0.05728794
Ni       7.41226171       5.67357672       4.19492900        2       1.00000000      -0.00960995      -0.00563370      -0.02812925
Ni       9.85829553       5.72918039       4.19538521        2       1.00000000      -0.00330364       0.01193750      -0.11317040
Ni       3.69518214       7.82665336       4.18235571        2       1.00000000       0.02802141       0.02173437      -0.01372116
Ni       6.16351276       7.76454201       4.15928640        2       1.00000000      -0.00032675       0.01184108       0.10630545
Ni       8.69033023       7.77507949       4.16979584        2       1.00000000      -0.01580056       0.00349768       0.01839996
Ni      11.10917385       7.83300666       4.22416113        2       1.00000000      -0.00437918       0.00543986      -0.11131750
Pt      -0.06097953      -0.00777920       6.28274295        1       0.00000000      -0.02035977       0.02507521       0.16571712
Pt       2.55704001      -0.05544362       6.34774206        1       0.00000000       0.01670194      -0.03231771       0.25228464
Ni       5.01631342      -0.01252075       6.23559871        1       1.00000000       0.02130635       0.00788037      -0.06961123
Ni       7.36551976      -0.01234875       6.22765655        1       1.00000000      -0.03241380       0.01068487      -0.11115200
Ni       1.23446789       2.18704955       6.27836753        1       1.00000000      -0.01712335       0.01812821       0.02043912
Ni       3.77047053       2.18385742       6.25616551        1       1.00000000       0.05336289       0.03550026      -0.02492696
Ni       6.19462053       2.13821918       6.23771184        1       1.00000000       0.00923659       0.03149014      -0.03037337
Ni       8.61445626       2.17623644       6.23939606        1       1.00000000      -0.04520375       0.04152369      -0.07086335
Ni       2.49833357       4.28823188       6.26268177        1       1.00000000       0.00117785       0.00769920      -0.01450140
Ni       4.96066196       4.26460677       6.23419538        1       1.00000000       0.00467534       0.01053142      -0.03323511
Ni       7.40999685       4.25881630       6.23837539        1       1.00000000      -0.04185984       0.00669832      -0.02719918
Ni       9.86224430       4.28151536       6.28516221        1       1.00000000      -0.03585791       0.00498186      -0.00335747
Ni       3.68179562       6.35401242       6.21662898        1       1.00000000      -0.01239789      -0.01162200      -0.08579329
Ni       6.17636988       6.32074895       6.22880348        1       1.00000000      -0.02156398      -0.00954825      -0.04229413
Ni       8.69001308       6.33458592       6.23505545        1       1.00000000       0.00390298      -0.04468728      -0.06470050
Ni      11.12522786       6.39385512       6.22784657        1       1.00000000      -0.01311249      -0.01280176      -0.13014519
