64
Lattice="10.385233584734276 -0.020375847095795954 0.06229441594983996 5.174970791158553 8.85554434235206 0.013062693240783851 0.0 0.0 21.595479605101264" Properties=species:S:1:pos:R:3:tags:I:1:initial_magmoms:R:1:forces:R:3 unique_id=be0c14ee35774076b79d57b3cabb7341 energy=-377.63307896910743 stress="0.006420541265557129 -1.2409896717804012e-05 0.00038632888377042416 -1.2409896717804012e-05 0.005386863710105669 0.00020830397218405143 0.00038632888377042416 0.00020830397218405143 -0.0019047566049457485" pbc="T T T"
Ni      -0.00912072      -0.01593218       0.11466758        1       1.00000000       0.01481083       0.04295691      -0.08166997
Ni       2.62387853      -0.01491331       0.15282457        2       1.00000000       0.07484117       0.04528843       0.07837200
Ni       5.19801558      -0.03868344       0.12475739        1       1.00000000       0.00058157       0.06394814      -0.37317536
Ni       7.78675087      -0.07732396       0.17040158        2       1.00000000      -0.08884250      -0.11012769      -0.13319673
Pt       1.30435002       2.22546994       0.13126703        1       0.00000000       0.00520179      -0.06841142      -0.24630076
Pt       3.87735624       2.16444211       0.14479679        1       0.00000000       0.02279299      -0.01573133      -0.32208250
Pt       6.49064192       2.12458902       0.08006416        1       0.00000000       0.07040669      -0.05454067      -0.08652945
Pt       9.11206729       2.19402264       0.11309052        1       0.00000000       0.02471590       0.04656780      -0.56528990
Ni       2.56859859       4.47953790       0.00723090        0       1.00000000      -0.01029807       0.02580675       0.17204151
Pt       5.14433891       4.46516125       0.00000000        0       0.00000000       0.17332501       0.00983387      -0.29753955
Pt       7.82861263       4.47232517       0.01654254        0       0.00000000      -0.13632137       0.06558626      -0.23146864
Ni      10.41384123       4.46654007       0.05670778        1       1.00000000       0.05909363       0.04721584       0.20754903
Ni       3.83542886       6.68309668       0.03658226        0       1.00000000      -0.03065288       0.11021298       0.32711273
Pt       6.48610428       6.74162859       0.16125020        2       0.00000000       0.01291573      -0.01736966      -0.46418168
Ni       9.11617324       6.66779321       0.05037787        1       1.00000000      -0.02621894       0.07685762       0.16487266
Ni      11.69203459       6.63155375       0.05840222        1       1.00000000       0.10923845       0.07096190       0.29340440
Ni       1.34088256       0.71671479       2.21655296        4       1.00000000       0.08885807      -0.00548830       0.35272737
Ni       3.87740616       0.74657050       2.21979844        4       1.00000000      -0.10186113       0.14840215       0.29696030
Ni       6.49614282       0.74769032       2.22354212        4       1.00000000      -0.03513681       0.16956937       0.28771815
Pt       9.10661626       0.71508809       2.24641992        4       0.00000000       0.04901679       0.18898502      -0.02396568
Ni       2.60389127       2.90622602       2.25328066        5       1.00000000       0.01284006      -0.12758245       0.40563218
Ni       5.20466094       2.90664666       2.24131249        4       1.00000000      -0.02552019      -0.08129393       0.25174278
Ni       7.77070553       2.91940158       2.24431986        4       1.00000000      -0.03180065      -0.04577458       0.13990281
Ni      10.40359667       2.91545563       2.29311600        5       1.00000000       0.01539143      -0.07027582       0.38418675
Pt       3.89479022       5.16054728       2.19765740        4       0.00000000       0.01317639      -0.09751235      -0.13327847
Ni       6.49815221       5.15147197       2.21117340        4       1.00000000       0.01403842      -0.09208601       0.09920096
Pt       9.05061786       5.12711046       2.28293323        5       0.00000000      -0.10133140      -0.09312187       0.01200826
Pt      11.69100403       5.10163913       2.23008292        4       0.00000000      -0.05146042      -0.11805657       0.03566184
Ni       5.21245138       7.39646091       2.19309823        4       1.00000000       0.06876026       0.02666762       0.22056122
Ni       7.75903854       7.40697095       2.22093073        4       1.00000000      -0.10130889       0.06857838       0.26172145
Pt      10.38032897       7.40956305       2.12925896        3       0.00000000       0.00254154      -0.00569219      -0.08592827
Ni      12.98745615       7.36039794       2.18605538        4       1.00000000       0.01766177      -0.03833702       0.01488166
Ni       0.05757220       1.50703466       4.27496118        6       1.00000000       0.14200319       0.06128267      -0.27415688
Ni       2.60250151       1.49239492       4.27086687        6       1.00000000      -0.04857598       0.03168477      -0.30579576
Ni       5.20958547       1.47381453       4.30505747        6       1.00000000      -0.09078054      -0.08208380      -0.36586942
Ni       7.80492953       1.47331897       4.34350267        6       1.00000000      -0.00844379      -0.09420445      -0.26765536
Ni       1.31458635       3.70434093       4.30140296        6       1.00000000      -0.00983961      -0.01961566      -0.15572572
Ni       3.86706992       3.66783302       4.31063757        6       1.00000000      -0.17888734      -0.14004992      -0.27202729
Pt       6.54093945       3.62282822       4.33641124        6       0.00000000       0.01508689      -0.04073944      -0.19182364
Ni       9.13899255       3.68957570       4.35372294        7       1.00000000       0.17589351      -0.07617067      -0.18013888
Ni       2.57957293       5.84498735       4.38098049        7       1.00000000      -0.08726480      -0.14365790       0.02981282
Pt       5.20465249       5.86342951       4.32214736        6       0.00000000       0.09867756      -0.03986802       0.02340748
Ni       7.83166843       5.86335216       4.35937935        7       1.00000000      -0.02289022      -0.03484806      -0.11265579
Ni      10.39696941       5.82818127       4.43599536        7       1.00000000      -0.00279399      -0.04448728       0.05201004
Pt       3.92606099       8.10650419       4.29916265        6       0.00000000       0.00115586       0.02251343       0.05706134
Ni       6.50863498       8.13713426       4.29239452        6       1.00000000      -0.04090803       0.14462012      -0.27821946
Pt       9.03419939       8.08974002       4.30633264        6       0.00000000      -0.05867745       0.04898419       0.07283754
Pt      11.69266172       8.07160822       4.32617213        6       0.00000000      -0.06292599      -0.07560261      -0.03884204
Pt       0.02675441      -0.04232799       6.50914604        9       0.00000000       0.12963698       0.08504941       0.32511372
Pt       2.63460579      -0.03718313       6.52945596        9       0.00000000      -0.06811390       0.12679682       0.25117862
Pt       5.23101868      -0.07345869       6.56364040       10       0.00000000       0.00707921       0.10525435       0.28623552
Pt       7.80233267      -0.07904219       6.59547961       10       0.00000000      -0.09607367       0.07897000       0.30171974
Pt       1.32656979       2.30934083       6.37727946        8       0.00000000      -0.02047770       0.15083500       0.30407702
Pt       3.96855939       2.28231584       6.39849439        8       0.00000000      -0.03278067      -0.01062546       0.29194436
Ni       6.52029154       2.21390253       6.44318126        8       1.00000000      -0.01300041      -0.08490549       0.09687678
Pt       9.07001274       2.27351795       6.40892700        8       0.00000000       0.04380080      -0.01185609       0.45583760
Ni       2.61379052       4.47907782       6.45900224        9       1.00000000       0.01761306       0.02936577      -0.40437824
Ni       5.20644470       4.40541856       6.42250022        8       1.00000000      -0.01670308      -0.00849606       0.17000831
Ni       7.83249810       4.41006779       6.42025545        8       1.00000000       0.08540061       0.02970868       0.05625075
Ni      10.41256059       4.46672187       6.50050208        9       1.00000000      -0.01641251       0.00663067      -0.41719925
Ni       3.87575673       6.55957152       6.49858482        9       1.00000000      -0.04110002      -0.10226518      -0.25402683
Pt       6.54444471       6.52347428       6.46312841        9       0.00000000       0.09302304       0.03863397       0.50638707
Ni       9.14130840       6.54141808       6.51126728        9       1.00000000       0.01166983      -0.10063490      -0.32975931
Ni      11.70114477       6.53085966       6.53734056        9       1.00000000      -0.01384610      -0.01625601      -0.39413594
