64
Lattice="10.287035345456763 -0.02017421770289769 0.013177835889636549 5.126046287696196 8.861394459469121 -0.02186221148786477 0.0 0.0 21.54954834916277" Properties=species:S:1:pos:R:3:tags:I:1:initial_magmoms:R:1:forces:R:3 unique_id=3f1700d3560342eca92ab828432b4138 stress="0.005747524779207972 1.4113805113540818e-05 5.199682282937279e-05 1.4113805113540818e-05 0.005673095450916745 -8.479253436379491e-05 5.199682282937279e-05 -8.479253436379491e-05 -0.0012884026316237456" energy=-375.3054595014733 pbc="T T T"
Ni       0.01192293      -0.00942350       0.12526778        1       1.00000000       0.06788898       0.00148725      -0.05037104
Ni       2.53725878       0.00365297       0.15665319        2       1.00000000      -0.06791571       0.05051933      -0.06153577
Pt       5.13471359      -0.04915074       0.09233107        1       0.00000000      -0.06566034       0.16430729      -0.89849731
Ni       7.73879589      -0.07452478       0.14050775        1       1.00000000      -0.04176041      -0.09908678      -0.17305169
Ni       1.28647200       2.22071619       0.04859109        0       1.00000000      -0.00703330       0.04019982       0.38877489
Pt       3.77191941       2.26592201       0.13454565        1       0.00000000       0.05812902      -0.02795074      -0.43038371
Pt       6.42417527       2.21632290       0.06185673        1       0.00000000       0.04581213      -0.02101810      -0.03827480
Pt       9.08639561       2.19603422       0.07615463        1       0.00000000      -0.00401789       0.11373853      -0.43649613
Ni       2.55930119       4.46156140       0.00000000        0       1.00000000       0.09652369       0.01922526       0.26294830
Ni       5.09364076       4.45837542       0.04648041        0       1.00000000      -0.10699905       0.12205391       0.37160200
Pt       7.74231046       4.47191659       0.04845618        0       0.00000000       0.04363277       0.06058326       0.01130718
Ni      10.32769643       4.43453611       0.02269094        0       1.00000000       0.05849901      -0.01001264       0.23582482
Ni       3.80682048       6.63278743       0.03734110        0       1.00000000      -0.01879940      -0.03343841       0.47072222
Pt       6.36501663       6.68668768       0.11814776        1       0.00000000      -0.06667758       0.06060656      -0.27629062
Ni       8.99841945       6.62017272       0.10941633        1       1.00000000      -0.12737209      -0.02306721      -0.31012968
Ni      11.59830135       6.59616263       0.01561357        0       1.00000000       0.07431846       0.07159786       0.21005409
Ni       1.29841582       0.72690248       2.14404315        3       1.00000000      -0.01568245      -0.00584521       0.06752658
Ni       3.83502605       0.75167362       2.17993311        4       1.00000000       0.03312992       0.00900107       0.22049384
Ni       6.43227514       0.76550849       2.20356974        4       1.00000000      -0.05211711       0.21768300       0.24874638
Pt       9.01814816       0.70642719       2.21157088        4       0.00000000       0.00845517       0.09044319       0.02850821
Ni       2.55977172       2.94829112       2.18539541        4       1.00000000       0.04035071       0.01360213       0.06835520
Ni       5.12762911       2.96704631       2.20432711        4       1.00000000      -0.06062949       0.06699488       0.15137089
Ni       7.71282000       2.95787691       2.21317404        4       1.00000000       0.03702116       0.01736337       0.19230948
Ni      10.30614635       2.92967037       2.21149878        4       1.00000000       0.03271741      -0.07041434       0.22450305
Ni       3.88957680       5.15491770       2.15456821        4       1.00000000       0.16991206      -0.05232753       0.06893173
Ni       6.40151155       5.15760047       2.19465252        4       1.00000000      -0.05748483      -0.00558196       0.13382168
Ni       8.96107950       5.11663416       2.18255885        4       1.00000000      -0.12695936      -0.23179504       0.23238868
Pt      11.63202226       5.07626534       2.12149991        3       0.00000000       0.15595686      -0.10415378       0.03803527
Ni       5.13509706       7.34655800       2.17261712        4       1.00000000       0.02205722      -0.13641280       0.16635462
Ni       7.65793193       7.37049138       2.16409453        4       1.00000000      -0.14949782      -0.03967205       0.21642355
Pt      10.25946221       7.31616088       2.13923088        3       0.00000000       0.01091451      -0.12581669      -0.24060359
Ni      12.88359055       7.32617822       2.11016741        3       1.00000000       0.14971667      -0.13151418       0.01333807
Ni       0.00719851       1.50799442       4.29146491        6       1.00000000      -0.03010420       0.03452359      -0.19116306
Pt       2.51231218       1.53682916       4.22229204        5       0.00000000      -0.01488263      -0.05265006       0.04113273
Ni       5.15734833       1.49694759       4.27913075        6       1.00000000      -0.06533579       0.00938874      -0.41083896
Ni       7.71632359       1.48457748       4.30419605        6       1.00000000      -0.02953612      -0.00277010      -0.29669385
Ni       1.28896400       3.66946384       4.34167922        6       1.00000000       0.02647582      -0.02865623      -0.05356667
Ni       3.84707975       3.74185098       4.28072800        6       1.00000000      -0.05156004       0.10955432      -0.29290845
Pt       6.41683983       3.68371212       4.28863039        6       0.00000000      -0.07366103       0.02803034      -0.05897322
Ni       8.99678061       3.65089564       4.27007482        6       1.00000000      -0.04756569      -0.08259610      -0.41903082
Ni       2.60785867       5.83495937       4.33774356        6       1.00000000       0.07400178      -0.14435744      -0.10966608
Ni       5.11415506       5.85151108       4.26503192        6       1.00000000       0.01257035      -0.15720013      -0.32581626
Ni       7.68153963       5.85836470       4.26287676        6       1.00000000      -0.04196735      -0.02651559      -0.42085661
Pt      10.30004925       5.76340239       4.32916215        6       0.00000000       0.04637105      -0.00786609       0.08127492
Pt       3.91774181       8.03949093       4.26559920        6       0.00000000       0.11546096      -0.12469777       0.12895642
Ni       6.40684412       8.08245309       4.24559472        5       1.00000000      -0.03128988      -0.04284745      -0.35368509
Pt       8.90595469       8.09605319       4.23894269        5       0.00000000      -0.12207810       0.00611148      -0.05567879
Pt      11.60829572       8.10743721       4.23582053        5       0.00000000       0.04921009      -0.04846907      -0.03770352
Pt       0.01011202       0.00278725       6.51160108        8       0.00000000       0.02460690       0.12386503       0.23612545
Pt       2.55952428       0.01220786       6.53887761        8       0.00000000       0.03534229      -0.06760926       0.34555898
Pt       5.16534605       0.00127430       6.42833277        7       0.00000000      -0.04961961       0.19760505       0.95911947
Pt       7.72823077      -0.06876665       6.54954835        8       0.00000000       0.04863498       0.20004033       0.28759833
Ni       1.28462440       2.27133975       6.46083761        8       1.00000000       0.00888719       0.17360603      -0.24909403
Pt       3.86339923       2.32767807       6.40775237        7       0.00000000       0.04085792       0.05727999       0.36284324
Ni       6.44070494       2.23352171       6.39573261        7       1.00000000      -0.00582405      -0.00514647       0.07145290
Pt       9.01304662       2.28269222       6.36544871        7       0.00000000      -0.01984046      -0.08501063       0.49185523
Ni       2.54901901       4.45988459       6.44504475        7       1.00000000      -0.02253032       0.01589455      -0.43352102
Ni       5.12122001       4.41751685       6.45672855        8       1.00000000      -0.07789465       0.04542467      -0.32799417
Ni       7.69550099       4.37954929       6.39131735        7       1.00000000      -0.03251328       0.01483179       0.00045919
Ni      10.35077227       4.37865978       6.47894928        8       1.00000000       0.14242059      -0.04893655      -0.16628841
Ni       3.81389269       6.55139466       6.45716462        8       1.00000000      -0.04031730      -0.12986138      -0.33242834
Pt       6.36525586       6.52949315       6.36826125        7       0.00000000       0.09231287       0.09583687       0.30652342
Pt       9.02577839       6.50689135       6.52649016        8       0.00000000      -0.12765996      -0.05602297       0.32343222
Ni      11.61099845       6.54906878       6.48547958        8       1.00000000       0.03059876      -0.00207876      -0.20713151
