64
Lattice="10.27511737154841 -0.02584176064138143 0.041984215896250524 5.115179064580253 8.835161932289177 0.020431618571607524 0.03427996873221996 -0.0005284344518915981 8.79849245706636" Properties=species:S:1:pos:R:3:tags:I:1:initial_magmoms:R:1:forces:R:3 unique_id=98772bee195847fcb404e3fe233301db stress="0.000217670710625624 7.422651322823567e-06 -3.0863075783731754e-05 7.422651322823567e-06 0.00021407768883418415 -1.3641908803289019e-05 -3.0863075783731754e-05 -1.3641908803289019e-05 0.0002158767399486894" energy=-395.9164552041666 pbc="T T T"
Ni       0.02506912      -0.01294117       0.17012143        4       1.00000000       0.10971026      -0.03272468       0.24078719
Ni       2.53801215      -0.00251104       0.21697167        4       1.00000000      -0.02971468       0.01806683       0.40033483
Pt       5.13921057      -0.04440840       0.16346091        4       0.00000000      -0.00007308      -0.07107495       0.28033183
Ni       7.73182041      -0.06892624       0.21884567        4       1.00000000       0.03712422      -0.03020188       0.32946198
Ni       1.28332287       2.21850996       0.11357368        4       1.00000000       0.02375748       0.07469738       0.24623731
Pt       3.77706385       2.26142562       0.20437223        4       0.00000000      -0.03660910       0.10884890       0.17812352
Pt       6.43441477       2.26552260       0.14138180        4       0.00000000       0.05753307       0.18499635       0.01811023
Pt       9.06154390       2.24791695       0.17541742        4       0.00000000       0.10159848       0.07901278       0.22150067
Ni       2.55188548       4.45260494       0.08023774        4       1.00000000       0.04009903       0.11542123       0.02656657
Ni       5.10697517       4.44589985       0.12694922        4       1.00000000      -0.08843859       0.11270888       0.25263543
Ni       7.71948937       4.43693684       0.14350515        4       1.00000000       0.09253017       0.11459494       0.24721377
Ni      10.28906282       4.43030026       0.12119690        4       1.00000000       0.10808226       0.16534836       0.10831621
Ni       3.80952787       6.61426834       0.12172691        4       1.00000000      -0.01907000      -0.02901820       0.19546630
Pt       6.39909624       6.60862677       0.20707922        4       0.00000000      -0.01132818      -0.00350642       0.01559005
Ni       8.97249274       6.56441607       0.19928058        4       1.00000000      -0.06302350      -0.11097582       0.21334658
Ni      11.58213531       6.57143528       0.12104542        4       1.00000000       0.11226359      -0.02713474       0.05414257
Ni       1.30951738       0.73165124       2.19986475        3       1.00000000       0.01786065      -0.01175602       0.01378085
Ni       3.83554636       0.74877373       2.24480255        3       1.00000000       0.05715852       0.00149329      -0.00384477
Ni       6.41832679       0.75475263       2.25519568        3       1.00000000      -0.09965210       0.04042500       0.02355733
Pt       9.04380302       0.68395239       2.24399237        3       0.00000000       0.09863945       0.09474139      -0.08524706
Ni       2.55789906       2.95131848       2.24937504        3       1.00000000       0.02955748       0.07544642      -0.01790764
Ni       5.12536183       2.96860633       2.27612875        3       1.00000000      -0.10988499       0.07395466       0.07540000
Ni       7.70678741       2.99364014       2.25904769        3       1.00000000       0.07150636       0.12157483      -0.00594226
Ni      10.29736353       2.92916876       2.30088930        3       1.00000000       0.02294754      -0.05509325       0.19291697
Ni       3.88325912       5.14589904       2.22889560        3       1.00000000       0.10785755      -0.03352845       0.01659420
Ni       6.41571953       5.13795030       2.25768418        3       1.00000000      -0.02461101       0.05213384      -0.03267089
Ni       8.94199260       5.09768659       2.25531343        3       1.00000000      -0.08373093      -0.16760252       0.06986687
Pt      11.59637384       5.06667821       2.26599691        3       0.00000000       0.11115703      -0.09352439       0.05740870
Ni       5.14364846       7.31963127       2.24723035        3       1.00000000       0.09448451      -0.21223544       0.00953475
Ni       7.65461441       7.34513026       2.25737421        3       1.00000000      -0.15849513      -0.10780930       0.03958567
Pt      10.23769814       7.27349782       2.24466436        3       0.00000000      -0.06827995      -0.07779748      -0.17433346
Ni      12.86918375       7.29916784       2.21739113        3       1.00000000       0.10206307      -0.22655318      -0.04087151
Ni       0.03739691       1.51815176       4.34507355        2       1.00000000      -0.06441125       0.09027538      -0.09408830
Pt       2.52227711       1.54353946       4.28245354        2       0.00000000      -0.00119336       0.04592488       0.11547879
Ni       5.13550648       1.49570426       4.34248571        2       1.00000000      -0.12794020       0.05655373      -0.21608560
Pt       7.71193301       1.50504166       4.35127312        2       0.00000000       0.00734197       0.02744924       0.08297112
Ni       1.27121860       3.71534373       4.40490414        2       1.00000000      -0.04638846       0.01932486       0.01170948
Ni       3.84037806       3.74732114       4.34724930        2       1.00000000      -0.11703707       0.10728181      -0.23514274
Pt       6.38860449       3.74777468       4.37482848        2       0.00000000      -0.02215693      -0.03911929      -0.00889753
Ni       9.04058556       3.72983395       4.36618180        2       1.00000000       0.00774329       0.07711630      -0.22923548
Ni       2.58360912       5.81255820       4.41152592        2       1.00000000       0.01109453      -0.16340143      -0.07937479
Ni       5.11214162       5.85431205       4.34836189        2       1.00000000      -0.04783219      -0.06823447      -0.24414468
Ni       7.71298184       5.84869951       4.34692162        2       1.00000000       0.02185359      -0.02505690      -0.24040019
Ni      10.28699695       5.78863596       4.42262843        2       1.00000000       0.01958269      -0.10483273      -0.06074486
Pt       3.92180656       8.00071632       4.34558562        2       0.00000000       0.02044699      -0.09580109       0.17712488
Ni       6.41272362       8.06708367       4.33388444        2       1.00000000      -0.07148182      -0.06218325      -0.18475120
Pt       8.90752931       8.05209810       4.34240067        2       0.00000000       0.00098961      -0.00947172       0.09834026
Pt      11.57833718       7.99358849       4.35860899        2       0.00000000      -0.03022743      -0.11166756       0.02824159
Pt       0.02325402       0.01719866       6.55260556        1       0.00000000       0.02960354       0.03978897       0.05530851
Pt       2.57299966       0.01923400       6.58890165        1       0.00000000      -0.04581706       0.02389428       0.21758363
Pt       5.17055921       0.01235298       6.48806779        1       0.00000000       0.06230616       0.04409151      -0.42251570
Pt       7.73087238      -0.07765698       6.63334717        1       0.00000000      -0.07786965      -0.08447983       0.18401725
Ni       1.30216394       2.28447046       6.51761014        1       1.00000000       0.05636007       0.17458013      -0.15819341
Pt       3.86778817       2.33822408       6.47099397        1       0.00000000      -0.09565554       0.14087401      -0.23217252
Ni       6.44122788       2.25010369       6.48531458        1       1.00000000      -0.00267618       0.07152676      -0.20172294
Pt       9.04192435       2.31148665       6.48493197        1       0.00000000       0.00232932       0.10815969      -0.34298386
Ni       2.55175246       4.46570045       6.50850113        1       1.00000000      -0.07561529       0.05924380      -0.21441617
Ni       5.12414278       4.42197140       6.53882384        1       1.00000000      -0.13832647       0.09303916      -0.12118637
Ni       7.69617992       4.38058353       6.54648197        1       1.00000000      -0.12572968      -0.05110910      -0.14456872
Ni      10.35780238       4.40005709       6.53861130        1       1.00000000       0.28459502       0.00642676      -0.21435533
Ni       3.82146668       6.54226535       6.53528646        1       1.00000000      -0.07620075      -0.22485995      -0.11525990
Pt       6.37761964       6.52232802       6.45235565        1       0.00000000      -0.04983053      -0.00225808      -0.28905536
Pt       9.04898614       6.47887486       6.57756388        1       0.00000000       0.04403891      -0.15423024       0.07928724
Ni      11.59956611       6.52747060       6.57074900        1       1.00000000       0.04508467      -0.13177396      -0.16675990
