64
Lattice="10.786020585507913 -0.002493362242210102 0.001613924847531795 5.390850977711366 9.338142742129424 -0.004313781398710388 0.0 0.0 21.966965348518563" Properties=species:S:1:pos:R:3:tags:I:1:initial_magmoms:R:1:forces:R:3 unique_id=bb24a462021c4a96b21bc9aa9f28923c energy=-406.0950398991142 stress="0.0025910327478465382 2.288638001325952e-05 -1.1996551883681788e-05 2.288638001325952e-05 0.002513299220917451 2.6305865673817853e-05 -1.1996551883681788e-05 2.6305865673817853e-05 -0.002247058971130887" pbc="T T T"
Pt      -0.00077701      -0.00127324       0.07159829        1       0.00000000       0.02105008      -0.00043058      -0.20134123
Pt       2.69687081      -0.00082463       0.06570181        1       0.00000000      -0.01400155      -0.03328013      -0.32601287
Pt       5.39306517      -0.00144369       0.07117149        1       0.00000000      -0.02746186      -0.00900785      -0.35635409
Pt       8.08992358      -0.00486836       0.07253187        1       0.00000000       0.02168016       0.00139018      -0.30010816
Pt       1.34769602       2.33509268       0.07048625        1       0.00000000      -0.00816413      -0.00906875      -0.20119723
Pt       4.04467425       2.33495899       0.07294034        1       0.00000000      -0.00325643      -0.03185209      -0.33350793
Pt       6.74125245       2.33829409       0.06759476        1       0.00000000      -0.01667253      -0.00794832      -0.27584400
Pt       9.43645080       2.33436936       0.06431169        1       0.00000000       0.03308371      -0.02361749      -0.23038623
Pt       2.70543597       4.67478717       0.09051319        1       0.00000000       0.12306916       0.05892104      -0.24141971
Pt       5.38621067       4.67425878       0.08215871        1       0.00000000      -0.11462659       0.08492903      -0.21099170
Pt       8.08662764       4.66918837       0.00000000        0       0.00000000      -0.00200328       0.03614973       0.09562151
Pt      10.78441635       4.66860261       0.06381350        1       0.00000000       0.01025730      -0.00112779      -0.23390640
Pt       4.04320331       6.99216282       0.08735734        1       0.00000000       0.02772801      -0.14206833      -0.26319503
Pt       6.74150861       6.99706001       0.06307657        1       0.00000000       0.03876350       0.03216646      -0.21109113
Pt       9.43279208       6.99722676       0.06032963        1       0.00000000      -0.01594831       0.01690737      -0.23018858
Pt      12.13480605       7.00055963       0.07194786        1       0.00000000      -0.04394857       0.00277071      -0.33488290
Pt       1.33882086       0.77962486       2.39355009        3       0.00000000      -0.01906964      -0.01920619       0.60250446
Pt       4.03973863       0.77936143       2.37238471        3       0.00000000      -0.03943354       0.02294172       0.56982702
Pt       6.74499518       0.77722121       2.36587276        3       0.00000000       0.03464063       0.02765646       0.56109053
Pt       9.44864053       0.77612536       2.38846832        3       0.00000000       0.01370410      -0.01251910       0.55644454
Pt       2.71122928       3.14003204       2.36870444        3       0.00000000       0.01955874       0.04124441       0.49394389
Pt       5.37634144       3.14415908       2.36433102        3       0.00000000       0.01018465       0.09670012       0.52653863
Pt       8.08537243       3.12027938       2.37026171        3       0.00000000      -0.04595325       0.08521973       0.47763830
Pt      10.78942530       3.10306008       2.38953485        3       0.00000000      -0.01112013       0.03864265       0.58696928
Ni       4.04435337       5.44471163       2.34102237        2       1.00000000       0.03351371      -0.00738383       0.52748411
Pt       6.72012177       5.44766498       2.38831608        3       0.00000000       0.01608369      -0.03574650       0.50589341
Pt       9.42418995       5.44421161       2.39237832        3       0.00000000      -0.06307063      -0.05458930       0.56528611
Pt      12.16177724       5.44060311       2.36780020        3       0.00000000      -0.01924394      -0.02477544       0.52835897
Pt       5.37777507       7.74975722       2.36427531        3       0.00000000      -0.01027356      -0.08511066       0.47280083
Pt       8.08003040       7.76781047       2.38667341        3       0.00000000      -0.06454901      -0.04215405       0.55977830
Pt      10.78666081       7.77374292       2.36378195        3       0.00000000       0.01925699      -0.05330534       0.51717243
Pt      13.50030107       7.75036656       2.36471902        3       0.00000000       0.03901083      -0.03338316       0.50909593
Ni      -0.00010437       1.55576627       4.69662325        5       1.00000000      -0.00195763       0.02117438      -0.53190579
Pt       2.66304478       1.54964432       4.67272518        5       0.00000000      -0.05133804      -0.02882900      -0.50496331
Pt       5.39390430       1.55985069       4.67671322        5       0.00000000       0.01021819       0.06799374      -0.57575049
Pt       8.12566053       1.56174539       4.67904629        5       0.00000000       0.06985567       0.06025721      -0.51129908
Pt       1.32201134       3.86252816       4.67400801        5       0.00000000      -0.12459055      -0.03083515      -0.49432399
Pt       4.04897164       3.90040532       4.65203027        5       0.00000000       0.04413622       0.03941329      -0.56356487
Pt       6.77654247       3.92656970       4.70421546        5       0.00000000       0.17562004       0.14531697      -0.30255247
Pt       9.42345767       3.89843510       4.70325578        5       0.00000000      -0.09923731       0.11628499      -0.33186977
Pt       2.70722549       6.21652301       4.64792787        4       0.00000000       0.03823704      -0.03427248      -0.58442039
Pt       5.41865147       6.22175673       4.65359958        5       0.00000000       0.02545496       0.04641213      -0.50335513
Ni       8.08809027       6.21650546       4.70381287        5       1.00000000      -0.01342571      -0.06723354      -0.42000736
Pt      10.75212918       6.21290206       4.67351530        5       0.00000000      -0.01310627      -0.03563660      -0.51353384
Pt       4.06629872       8.58322323       4.67029030        5       0.00000000       0.07960771       0.02676724      -0.47012886
Pt       6.73944888       8.55169425       4.67225771        5       0.00000000       0.00456820      -0.04833980      -0.47727245
Pt       9.41223358       8.52726497       4.67394124        5       0.00000000      -0.08235069      -0.04525180      -0.49996904
Pt      12.13527500       8.55302243       4.67034085        5       0.00000000       0.00977506      -0.01737065      -0.53310956
Pt       0.00270316       0.00608503       6.94364571        6       0.00000000       0.03380402       0.12801922       0.19213594
Pt       2.69586200      -0.01042139       6.96167647        7       0.00000000       0.01732534      -0.06285961       0.32527933
Pt       5.39246026      -0.00666437       6.96536275        7       0.00000000      -0.02828544      -0.02276603       0.30584296
Pt       8.09140642       0.00168792       6.96696535        7       0.00000000      -0.02620751       0.04425390       0.34102380
Pt       1.33498073       2.32803249       6.94727929        6       0.00000000      -0.17135152      -0.02602880       0.27316726
Pt       4.04654645       2.33218795       6.96670650        7       0.00000000       0.03039352       0.05048657       0.30150957
Pt       6.76178602       2.35965311       6.95990440        7       0.00000000       0.02924341       0.03552567       0.21342753
Pt       9.43134696       2.35270233       6.94401391        6       0.00000000       0.12579947      -0.02515375       0.17676896
Pt       2.69627587       4.66504025       6.96553048        7       0.00000000       0.00587494       0.00138239       0.20912464
Pt       5.42528820       4.66750288       6.96307009        7       0.00000000      -0.01814733       0.01489599       0.19037523
Ni       8.08936342       4.66719807       6.96528161        7       1.00000000       0.00725743       0.05256169      -0.41284908
Pt      10.75098267       4.66394619       6.95983296        7       0.00000000      -0.00899179       0.02487812       0.28308033
Pt       4.05272357       6.99725662       6.96125066        7       0.00000000       0.06494299      -0.05304714       0.15498501
Pt       6.76719771       6.96633880       6.93984384        6       0.00000000       0.13028368      -0.11685344       0.08702822
Pt       9.40928398       6.96221038       6.94207983        6       0.00000000      -0.14047307      -0.12025555       0.17393750
Pt      12.12496934       6.99481026       6.96610822        7       0.00000000      -0.06572334      -0.05995487       0.29716815
