64
Lattice="10.148035296553795 -0.0058237802348375355 -0.0012940048321005634 5.068974106647471 8.70430548961185 -0.10500032928406577 0.0 0.0 21.45318033996817" Properties=species:S:1:pos:R:3:tags:I:1:initial_magmoms:R:1:forces:R:3 unique_id=e3e663b26aa344ac9e0ef85e3b3924cf energy=-367.25578554010457 stress="0.004740835508993834 -6.098868816438334e-05 -2.5316924222980086e-05 -6.098868816438334e-05 0.004064024831084385 -0.0006817791866162222 -2.5316924222980086e-05 -0.0006817791866162222 -0.0019972446319023148" pbc="T T T"
Ni       0.03749515      -0.05491156       0.18573813        2       1.00000000       0.08426666       0.01165899      -0.37721518
Ni       2.48753626      -0.03954873       0.19768630        2       1.00000000       0.02169354      -0.00843474      -0.15750327
Pt       5.09499116      -0.04138406       0.15481002        2       0.00000000      -0.10641222       0.06643017      -0.90521588
Ni       7.62550793      -0.06336798       0.18314419        2       1.00000000      -0.00718291      -0.08345084      -0.41353844
Ni       1.25805586       2.18057023       0.09468525        1       1.00000000      -0.04143919      -0.01350486       0.31621486
Pt       3.75739280       2.22759144       0.16159494        2       0.00000000      -0.03233540      -0.02816959      -0.63782691
Ni       6.34689735       2.20826812       0.08924193        1       1.00000000      -0.05657372      -0.00234492       0.11682413
Pt       8.88622091       2.20636728       0.00000000        0       0.00000000       0.05973157      -0.00002670      -0.11030482
Ni       2.50374958       4.38717965       0.05329186        1       1.00000000       0.03310015      -0.02119748       0.34563891
Ni       5.06791491       4.37896103       0.01940287        0       1.00000000      -0.13801357       0.01400889       0.09816870
Ni       7.60214326       4.36758895       0.02520170        0       1.00000000       0.12006227       0.01803637       0.05870364
Ni      10.17546150       4.37167773       0.05331677        1       1.00000000      -0.01474666       0.01771895       0.32791963
Ni       3.80192255       6.49882390       0.03065988        0       1.00000000       0.03687354      -0.01116949       0.26202106
Ni       6.32750035       6.52897923       0.00552964        0       1.00000000       0.00448202       0.07544110       0.14796773
Ni       8.83905592       6.46137568       0.09779234        1       1.00000000      -0.09041254      -0.03476857      -0.15895951
Ni      11.44899535       6.45928111       0.01350205        0       1.00000000       0.00073570       0.03218805       0.22885836
Ni       1.29781236       0.71320181       2.19245321        4       1.00000000      -0.01351107       0.11485447       0.12059004
Ni       3.72838915       0.69526459       2.19883189        4       1.00000000      -0.16140107      -0.07593371       0.11446656
Ni       6.37641411       0.72621379       2.17837816        4       1.00000000       0.06241899      -0.00850481      -0.00012636
Pt       8.90350912       0.71825953       2.19234864        4       0.00000000       0.09916836       0.07048390      -0.00365056
Ni       2.48589176       2.90387967       2.21786681        4       1.00000000       0.00007518      -0.02909370       0.09761762
Ni       5.07068622       2.89545228       2.15794369        4       1.00000000      -0.05763513       0.02344693      -0.01716089
Ni       7.61539814       2.88770272       2.15700839        4       1.00000000       0.08261878       0.01447399       0.07744849
Ni      10.18891339       2.91362809       2.18099043        4       1.00000000       0.02990218       0.00646916       0.13208971
Ni       3.76050040       5.04548620       2.11794849        3       1.00000000      -0.04556094      -0.06480649       0.05386384
Pt       6.33817557       5.08387208       2.08404658        3       0.00000000       0.03195509       0.01086915      -0.07855996
Ni       8.89372120       4.99629968       2.12846874        3       1.00000000       0.03523652      -0.16756188       0.09997424
Ni      11.43797186       5.00140446       2.12792312        3       1.00000000       0.01244432      -0.08442199       0.15435196
Ni       5.08582929       7.21839266       2.05910775        3       1.00000000      -0.03200938       0.04251319       0.03085380
Ni       7.58386406       7.25991030       2.10241196        3       1.00000000      -0.00413340       0.03693188       0.13053949
Pt      10.14776592       7.15134749       2.17426932        4       0.00000000       0.02085611      -0.05447594      -0.04047218
Ni      12.68543594       7.15811387       2.05995326        3       1.00000000       0.03229354      -0.10762472       0.03552085
Ni       0.03686897       1.45907348       4.28278781        7       1.00000000       0.07503282       0.00163337      -0.06456421
Ni       2.47120631       1.42172428       4.22382081        6       1.00000000      -0.03757989      -0.00973942      -0.10743310
Pt       5.05805828       1.38279015       4.16441870        6       0.00000000      -0.04950312      -0.13654586       0.00084069
Ni       7.63817411       1.42219302       4.28879864        7       1.00000000       0.05037167      -0.05325856      -0.10185431
Ni       1.26271447       3.58610679       4.25737400        7       1.00000000       0.03802708      -0.02404395      -0.11493851
Ni       3.74644112       3.65104718       4.20442887        6       1.00000000      -0.04321058       0.03318676      -0.12405109
Pt       6.37905753       3.61964394       4.29095381        7       0.00000000       0.03973199       0.04497259       0.08354266
Ni       8.93411329       3.59161580       4.25163032        7       1.00000000       0.05962479       0.07986840      -0.15420221
Ni       2.50704749       5.69919400       4.23123380        6       1.00000000      -0.07049902      -0.05380665      -0.16692027
Ni       5.05936445       5.74337795       4.25689692        7       1.00000000       0.03120056      -0.02903115      -0.09384959
Ni       7.62169838       5.78137105       4.20647620        6       1.00000000       0.11745868       0.08261223      -0.10482268
Ni      10.17356706       5.69164272       4.23061867        6       1.00000000       0.02139241      -0.09095093      -0.02322839
Pt       3.80891198       7.85367980       4.15290897        6       0.00000000       0.03387964       0.00774521       0.05450917
Ni       6.36081908       7.91070857       4.13770907        5       1.00000000       0.00579659       0.03321658      -0.13974412
Ni       8.82139534       7.88927007       4.16052098        6       1.00000000      -0.13651259       0.06697422      -0.13935900
Ni      11.43396468       7.85774265       4.17506939        6       1.00000000       0.03615279      -0.07275573      -0.01838763
Pt       0.00469245      -0.04900267       6.45318034       10       0.00000000       0.00432181       0.12969674       0.20817115
Pt       2.51939230      -0.06787613       6.40098280        9       0.00000000       0.00873387       0.06586929       0.16282876
Pt       5.08734651      -0.09064952       6.33420258        8       0.00000000       0.00796972      -0.05833006       1.01751203
Pt       7.61412723      -0.05984529       6.45297868       10       0.00000000      -0.05008416       0.09312965       0.37023656
Ni       1.22816383       2.18804832       6.35095134        9       1.00000000       0.04461926       0.01127097      -0.19612213
Pt       3.77480870       2.25295922       6.32024852        8       0.00000000      -0.13016018       0.13539519       0.62057875
Ni       6.37363719       2.16919422       6.39091280        9       1.00000000      -0.04161832      -0.03248741       0.01676725
Ni       8.88811183       2.18511286       6.25268726        8       1.00000000       0.00800545      -0.02789550       0.25576040
Ni       2.49545942       4.35167161       6.33059661        8       1.00000000       0.03224275      -0.07013707      -0.31378605
Ni       5.08091193       4.35634742       6.36044509        9       1.00000000      -0.10979020      -0.00166948      -0.07153707
Ni       7.60185698       4.24635508       6.37443569        9       1.00000000       0.10725276      -0.03007110      -0.02796845
Ni      10.18446677       4.23712891       6.33212096        8       1.00000000      -0.02072380       0.00081398      -0.30859149
Ni       3.80069898       6.39004680       6.33128855        8       1.00000000      -0.02089071       0.04615016      -0.22936014
Ni       6.30588067       6.39678820       6.31228797        8       1.00000000       0.01759174       0.06120847      -0.21290124
Pt       8.87514110       6.32320041       6.33540424        8       0.00000000       0.03512176      -0.04891256       0.06831102
Ni      11.44954712       6.38299461       6.30706176        8       1.00000000      -0.03050287       0.08585688      -0.19453642
