64
Lattice="10.271741069369822 0.011200941878419579 -0.004493046930435382 5.145570834897935 8.822569008533046 -0.061517067675724346 0.0 0.0 21.544350552195258" Properties=species:S:1:pos:R:3:tags:I:1:initial_magmoms:R:1:forces:R:3 unique_id=29e08857051b40b7a3e7430b223f6571 stress="0.005357349412983982 3.373949147913927e-05 9.201541667499859e-05 3.373949147913927e-05 0.004539658633089373 -0.00013465932590459633 9.201541667499859e-05 -0.00013465932590459633 -0.0014237037102958795" energy=-372.79294628669794 pbc="T T T"
Ni       0.03530280      -0.04420145       0.15880323        2       1.00000000       0.13742574      -0.02963061      -0.07482017
Ni       2.51170848      -0.02817625       0.17549692        2       1.00000000      -0.04072273      -0.00928451      -0.03501202
Pt       5.12711487      -0.04376856       0.11641690        1       0.00000000      -0.11232727       0.12360629      -1.17363661
Ni       7.72522401      -0.04602861       0.15886645        2       1.00000000      -0.04133058      -0.01851302      -0.28646260
Ni       1.27950171       2.20756499       0.07136947        1       1.00000000      -0.02599116       0.00953935       0.38740678
Pt       3.75165613       2.22315854       0.14969303        1       0.00000000       0.05494616       0.00821578      -0.51824631
Pt       6.45527275       2.22889460       0.06432294        1       0.00000000      -0.02782391       0.00788733      -0.21069027
Pt       9.06994159       2.25212437       0.08619656        1       0.00000000       0.06839082       0.06787916      -0.51504087
Ni       2.53885389       4.43916880       0.00790938        0       1.00000000       0.03115676       0.03513053       0.20255872
Pt       5.13155030       4.52560716       0.03971607        0       0.00000000      -0.08510713       0.10580444       0.07013014
Ni       7.71807701       4.46257734       0.01409916        0       1.00000000      -0.00047192       0.04309849       0.11299125
Ni      10.30621796       4.44163428       0.00397334        0       1.00000000       0.07287990       0.04682886       0.24505643
Ni       3.83743998       6.65034847       0.03231743        0       1.00000000       0.01602467       0.08092391       0.37979080
Ni       6.43932571       6.65658609       0.04099120        0       1.00000000      -0.01363790       0.09427118       0.39108418
Ni       8.95856505       6.58675918       0.07866879        1       1.00000000      -0.14680520       0.03211597      -0.24562836
Ni      11.59948280       6.58546517       0.00000000        0       1.00000000       0.05663606       0.02487649       0.20142830
Ni       1.31032915       0.72600793       2.19381357        4       1.00000000       0.01077856       0.05379795       0.23603330
Ni       3.78454376       0.74162084       2.19703732        4       1.00000000      -0.21517567      -0.03224722       0.14847829
Ni       6.44270846       0.75538230       2.19400897        4       1.00000000       0.06853582       0.03624857       0.17184251
Pt       9.01723967       0.72092819       2.20760428        4       0.00000000       0.11186593       0.05354721       0.04923946
Ni       2.55469224       2.90005709       2.23808236        4       1.00000000       0.04119344      -0.14141994       0.31134058
Ni       5.12363844       2.97055476       2.18484190        4       1.00000000      -0.06780384       0.17801969       0.10490344
Ni       7.68544945       2.93180274       2.20723262        4       1.00000000      -0.08876182      -0.10621617       0.19124683
Ni      10.32406654       2.91358649       2.21618721        4       1.00000000       0.13722207      -0.14686962       0.30797630
Ni       3.88202875       5.14167333       2.18823766        4       1.00000000       0.09523491      -0.02350888       0.24244159
Ni       6.39825839       5.16949800       2.16219482        4       1.00000000      -0.07208946       0.08775623       0.11523335
Pt       8.92264926       5.08337379       2.16278285        4       0.00000000      -0.08666937      -0.23442707       0.06120017
Pt      11.63739303       5.07865108       2.16248321        4       0.00000000       0.11498258      -0.18695533       0.12168314
Ni       5.17941426       7.29787262       2.11021973        3       1.00000000       0.05551988      -0.12218102       0.00823793
Ni       7.62837096       7.35333033       2.10309933        3       1.00000000      -0.20893143      -0.02894970       0.09084181
Pt      10.27579050       7.31128129       2.13235200        3       0.00000000       0.02859700      -0.06295946      -0.15185627
Ni      12.89104294       7.31577786       2.08327167        3       1.00000000       0.14814860      -0.12904585       0.00062736
Ni       0.05529567       1.48000867       4.30632482        6       1.00000000       0.15626646       0.01417494      -0.16805866
Ni       2.49543517       1.49018600       4.28135406        6       1.00000000      -0.11949313       0.05076812      -0.20407601
Pt       5.11687114       1.50222604       4.21888230        5       0.00000000      -0.11470852      -0.00524022      -0.21230822
Ni       7.72361619       1.47815456       4.30494408        6       1.00000000       0.03123414      -0.03531986      -0.26312146
Ni       1.29060908       3.63527784       4.34274069        6       1.00000000       0.04134648      -0.07547506      -0.02764072
Ni       3.80722938       3.71919804       4.27556487        6       1.00000000      -0.06201777       0.09061961      -0.28286518
Pt       6.45408678       3.72915989       4.29827017        6       0.00000000       0.02145897      -0.03557925      -0.12520702
Ni       9.02803414       3.68054901       4.28877171        6       1.00000000       0.11285209       0.01626887      -0.16429950
Ni       2.59700126       5.78015596       4.33584981        6       1.00000000       0.07830130      -0.16203951      -0.05134631
Ni       5.14336685       5.84368736       4.30291046        6       1.00000000       0.06814584      -0.03746489      -0.17938544
Ni       7.67312173       5.85445001       4.29991875        6       1.00000000      -0.11154994       0.09710934      -0.14549433
Ni      10.29465401       5.78145659       4.32953933        6       1.00000000       0.05754669      -0.13041717      -0.03737321
Pt       3.93660755       7.98635239       4.24006814        5       0.00000000       0.10421631      -0.07879166       0.01663584
Ni       6.41489686       8.04066760       4.23421352        5       1.00000000      -0.05960669      -0.02886100      -0.28160261
Pt       8.88333259       8.03324769       4.21007881        5       0.00000000      -0.12772163       0.07196879      -0.08851362
Pt      11.61135259       7.99158249       4.23444480        5       0.00000000       0.05342628      -0.10261967      -0.01187151
Pt       0.01281653      -0.07641652       6.52608204        8       0.00000000       0.00225123       0.10923503       0.21729369
Pt       2.53585934      -0.02839868       6.52014979        8       0.00000000       0.03342331       0.11983809       0.25811001
Pt       5.13850145      -0.03474060       6.44555683        7       0.00000000      -0.07606367       0.08337737       1.20250924
Pt       7.71369642      -0.06713519       6.54435055        8       0.00000000       0.00699198       0.17456234       0.40830821
Ni       1.27647025       2.23002032       6.44047481        7       1.00000000       0.00882001       0.09987423      -0.27633968
Pt       3.81112964       2.30610992       6.40210045        7       0.00000000      -0.08227768       0.14749067       0.46341287
Ni       6.42609648       2.22206398       6.39450540        7       1.00000000       0.00061757       0.03325020       0.13499917
Pt       9.00705437       2.27778430       6.35014515        7       0.00000000      -0.01882057      -0.08451914       0.52702260
Ni       2.53809520       4.42313621       6.42121849        7       1.00000000       0.02099945       0.03207195      -0.37369174
Ni       5.14247796       4.43137262       6.37155681        7       1.00000000      -0.10542851       0.08937289      -0.00856742
Ni       7.66561970       4.38247233       6.44704296        7       1.00000000      -0.10418823      -0.04074122      -0.14676984
Ni      10.33733163       4.38072186       6.42411394        7       1.00000000       0.14115354      -0.02428344      -0.31173882
Ni       3.85677572       6.49941144       6.43448433        7       1.00000000      -0.00045209      -0.14805699      -0.33174946
Ni       6.39923992       6.52043726       6.42175650        7       1.00000000      -0.04269516      -0.02776566      -0.35148879
Pt       8.98830483       6.44940247       6.45634569        8       0.00000000       0.07129484      -0.03534861       0.08571572
Ni      11.59189240       6.50790089       6.43458079        7       1.00000000      -0.00121243       0.00520185      -0.21087700
