64
Lattice="10.275755978992034 -0.021926021807037014 0.04289909354458692 5.118889497607195 8.839587288184099 -0.007026062658776276 0.0 0.0 21.536785323627015" Properties=species:S:1:pos:R:3:tags:I:1:initial_magmoms:R:1:forces:R:3 unique_id=ecb8c97645f94628b59d06f7e05b1f01 stress="0.005751699078432652 2.7677984670859555e-05 0.00024391624277165857 2.7677984670859555e-05 0.005576037872548242 -7.676815810206831e-05 0.00024391624277165857 -7.676815810206831e-05 -0.0012869311246789025" energy=-374.4621635782688 pbc="T T T"
Ni       0.01673100      -0.01039918       0.11287854        1       1.00000000       0.06872820       0.00768911      -0.08952819
Ni       2.53862994       0.00329901       0.15292515        2       1.00000000      -0.05468914       0.04963274      -0.10117454
Pt       5.13360028      -0.05511319       0.09953901        1       0.00000000      -0.05295620       0.18802521      -0.93764025
Ni       7.73428871      -0.07736364       0.15213997        2       1.00000000      -0.04063157      -0.09387686      -0.20115154
Ni       1.28918788       2.21552678       0.04185693        0       1.00000000       0.00067376       0.04983691       0.35740070
Pt       3.77160908       2.25897144       0.13195737        1       0.00000000       0.06155521      -0.02754823      -0.45741879
Pt       6.42096293       2.20845293       0.06651150        1       0.00000000       0.05654962      -0.02549081      -0.06527901
Pt       9.08095377       2.18935451       0.08740872        1       0.00000000       0.00338936       0.12019575      -0.47992309
Ni       2.55565655       4.45259990       0.00000000        0       1.00000000       0.06653842       0.03140960       0.32689956
Ni       5.08934472       4.44799461       0.04851705        0       1.00000000      -0.10113001       0.11745364       0.34583292
Pt       7.73888540       4.46106996       0.05854008        1       0.00000000       0.06328321       0.05516421      -0.01200014
Ni      10.32323172       4.42460533       0.04187036        0       1.00000000       0.08787852       0.01398955       0.29367259
Ni       3.80449666       6.61519852       0.03640004        0       1.00000000      -0.00942097      -0.03678585       0.43057290
Pt       6.36133702       6.67006549       0.12167537        1       0.00000000      -0.06032538       0.05949058      -0.32345657
Ni       8.99299139       6.60353802       0.10909309        1       1.00000000      -0.09713132      -0.02320018      -0.23788932
Ni      11.58809545       6.57481638       0.03637506        0       1.00000000       0.07124342       0.03975575       0.25282294
Ni       1.30295667       0.72615852       2.13056722        3       1.00000000      -0.01397535       0.00028731       0.08050945
Ni       3.83779399       0.74480838       2.17634710        4       1.00000000       0.04732744      -0.01349299       0.22436950
Ni       6.43001979       0.75680692       2.20864230        4       1.00000000      -0.05380673       0.17486644       0.27567644
Pt       9.01375719       0.70393532       2.22111273        4       0.00000000       0.00495061       0.09018053       0.01059478
Ni       2.55870267       2.94633551       2.17653543        4       1.00000000       0.03274542       0.04495864       0.06091494
Ni       5.12687652       2.95973863       2.20114083        4       1.00000000      -0.05298877       0.05755494       0.14700567
Ni       7.71168602       2.95085484       2.21793344        4       1.00000000       0.06264832       0.01769765       0.20265937
Ni      10.29896213       2.92476729       2.22584708        4       1.00000000       0.01236862      -0.05315791       0.23015949
Ni       3.88498526       5.14203923       2.14797755        3       1.00000000       0.12236300      -0.05756461       0.07272896
Ni       6.40033912       5.14441494       2.19545936        4       1.00000000      -0.04393322       0.00099943       0.12438713
Ni       8.96485853       5.10403692       2.21012139        4       1.00000000      -0.09504284      -0.23855625       0.26665686
Pt      11.60378450       5.06663902       2.18616634        4       0.00000000       0.14824068      -0.12039667       0.07655720
Ni       5.13399736       7.32722933       2.17034437        4       1.00000000       0.02885952      -0.14085235       0.15458299
Ni       7.65810959       7.34834019       2.16871808        4       1.00000000      -0.12457914      -0.06046982       0.20133537
Pt      10.25137110       7.27840118       2.16094316        4       0.00000000      -0.01567465      -0.16324623      -0.14214724
Ni      12.87312003       7.30319066       2.12845947        3       1.00000000       0.11856052      -0.15545393       0.02090087
Ni       0.01951142       1.50840645       4.26260583        6       1.00000000      -0.04369843       0.06732685      -0.18721196
Pt       2.52094172       1.53225855       4.20659479        5       0.00000000      -0.05694620       0.02614556       0.05618490
Ni       5.16538121       1.48378461       4.26637990        6       1.00000000      -0.05747994      -0.02004159      -0.39963904
Ni       7.71633301       1.47673534       4.30249108        6       1.00000000      -0.03931612      -0.00394939      -0.28334904
Ni       1.27173986       3.70310547       4.32044506        6       1.00000000      -0.04905843       0.03206544      -0.01276726
Ni       3.85115114       3.73545207       4.26445917        6       1.00000000      -0.07013631       0.11019674      -0.29007262
Pt       6.42553353       3.67583782       4.28175420        6       0.00000000      -0.04793361       0.01336350      -0.04783186
Ni       9.02962784       3.69163533       4.27299895        6       1.00000000       0.05338909       0.07129204      -0.33469855
Ni       2.58651815       5.81441208       4.32169673        6       1.00000000       0.01458476      -0.14312437      -0.06909720
Ni       5.11863616       5.83663514       4.25406133        6       1.00000000       0.01115169      -0.15904545      -0.31857440
Ni       7.71243825       5.83257945       4.25627111        6       1.00000000       0.00230942      -0.04312043      -0.39896655
Ni      10.29384822       5.78560092       4.33083250        6       1.00000000       0.01612525      -0.07510875      -0.10093460
Pt       3.91744945       8.01665513       4.25378910        6       0.00000000       0.09638068      -0.13540033       0.13878888
Ni       6.41299886       8.06025581       4.23677247        5       1.00000000      -0.04807200      -0.05493305      -0.34664220
Pt       8.91562315       8.04749841       4.24620166        5       0.00000000      -0.11291531       0.03975250      -0.03834222
Pt      11.59602651       8.04018536       4.25351680        6       0.00000000      -0.02004820      -0.10785682       0.01486006
Pt       0.02428477       0.00252824       6.47822797        8       0.00000000       0.03723307       0.12172159       0.27514805
Pt       2.57384745       0.00579141       6.51290454        8       0.00000000       0.01735171      -0.06991422       0.37226908
Pt       5.17173541      -0.00007160       6.41335702        7       0.00000000      -0.02843369       0.20467964       0.98491858
Pt       7.73048823      -0.07155706       6.53678532        8       0.00000000       0.01913489       0.20362658       0.31601980
Ni       1.29729104       2.26917030       6.43299790        7       1.00000000       0.00604173       0.17141302      -0.23562845
Pt       3.87173702       2.32314632       6.38580331        7       0.00000000       0.03060231       0.05168134       0.41490849
Ni       6.44822147       2.22884275       6.38180920        7       1.00000000      -0.01264299      -0.00981180       0.11860306
Pt       9.01910544       2.28244918       6.35444270        7       0.00000000      -0.01177610      -0.04858316       0.47909736
Ni       2.55439595       4.45161098       6.41651381        7       1.00000000      -0.01999406      -0.01503127      -0.42690478
Ni       5.12935154       4.40731856       6.44051712        7       1.00000000      -0.07834571       0.04819297      -0.29557008
Ni       7.70244733       4.36806957       6.37947380        7       1.00000000      -0.03875540      -0.00159987       0.01471549
Ni      10.35721510       4.38174050       6.44297216        7       1.00000000       0.14526754      -0.01679942      -0.33893324
Ni       3.82279876       6.53297339       6.43539285        7       1.00000000      -0.02761252      -0.13975274      -0.31671599
Pt       6.37958720       6.51191115       6.35158142        7       0.00000000       0.11069297       0.08562975       0.31090238
Pt       9.05499280       6.47080987       6.47226226        8       0.00000000      -0.04466571      -0.09315620       0.11067110
Ni      11.60511559       6.52180481       6.46948077        8       1.00000000       0.00594704      -0.01895394      -0.27383916
