64
Lattice="10.716969481345116 0.005495817048867447 -0.01716178882063435 5.363244257851434 9.268532574744906 0.0049771866068068875 -0.01401254189465173 0.012782681369446752 9.30694423823443" Properties=species:S:1:pos:R:3:tags:I:1:initial_magmoms:R:1:forces:R:3 unique_id=a5232b429e434d8eba550cc1a688d752 stress="0.0033623786495964383 -8.165330126994232e-06 5.376411120738092e-06 -8.165330126994232e-06 0.003346499621641519 1.019307166722813e-05 5.376411120738092e-06 1.019307166722813e-05 0.002522384800770716" energy=-425.4699586438595 pbc="T T T"
Pt       0.00288195      -0.01721326       0.12474037        4       0.00000000       0.05208077      -0.02272879       0.00847006
Pt       2.65765122       0.00732380       0.10940407        4       0.00000000       0.00149197      -0.00027491      -0.00051741
Pt       5.37042682       0.00662981       0.03747362        4       0.00000000      -0.03208292      -0.00288189      -0.03481626
Ni       8.04099135      -0.00093019       0.10012124        4       1.00000000       0.01999024      -0.02021610       0.28336427
Ni       1.33861990       2.31684648       0.10041526        4       1.00000000      -0.02603637      -0.00863361       0.24763260
Pt       3.98970342       2.30176553       0.10989453        4       0.00000000      -0.01530085      -0.01819015       0.07587379
Pt       6.71766629       2.28927337       0.09319536        4       0.00000000       0.04675316      -0.01255389       0.05310702
Pt       9.40062212       2.28717594       0.08821187        4       0.00000000       0.05300578      -0.07780529       0.08795207
Pt       2.66581666       4.61440338       0.10309608        4       0.00000000      -0.01827083       0.02029013       0.03426107
Pt       5.36546535       4.66692354       0.10678479        4       0.00000000      -0.03634996       0.02541239       0.04452802
Pt       8.03137549       4.65771007       0.08966338        4       0.00000000       0.01908806      -0.00748641       0.04349859
Pt      10.73292657       4.60952854       0.01644291        4       0.00000000       0.00868071      -0.03122583      -0.05232347
Pt       4.03638887       7.00443620       0.15099607        4       0.00000000      -0.00219542       0.09411144       0.07873920
Ni       6.69436531       6.95884428       0.11230177        4       1.00000000      -0.02304564       0.04912399       0.29037642
Pt       9.35969503       6.96196437       0.09145882        4       0.00000000       0.02304214      -0.00239599       0.05555300
Pt      12.08755791       6.99203512       0.10857955        4       0.00000000       0.02373432       0.05972627       0.14152074
Pt       1.33725810       0.76395059       2.33379502        3       0.00000000      -0.06516843       0.03405950      -0.00700336
Ni       4.01808625       0.76707896       2.34832859        3       1.00000000       0.01721815      -0.04577433       0.09553566
Pt       6.69989167       0.73322889       2.32805058        3       0.00000000       0.01790258      -0.05643045       0.00347739
Pt       9.36360031       0.67162753       2.34438231        3       0.00000000       0.00691926      -0.22846613       0.10423471
Pt       2.66895517       3.06701805       2.35502199        3       0.00000000      -0.03359294       0.03131502       0.07105109
Pt       5.33822047       3.06676091       2.36009660        3       0.00000000      -0.00126406      -0.01807080       0.09668976
Pt       8.04982476       3.08792273       2.37051453        3       0.00000000       0.05982893      -0.04348493       0.10052856
Pt      10.72712708       3.09370327       2.37279372        3       0.00000000      -0.02656742       0.03117131       0.11480843
Pt       4.01038139       5.48054717       2.35707537        3       0.00000000      -0.04226939       0.06423236       0.01993102
Pt       6.67615004       5.47298658       2.32712037        3       0.00000000      -0.01778227       0.09114226       0.01742820
Pt       9.38536213       5.40789027       2.37739154        3       0.00000000       0.01036486      -0.03533416       0.06499715
Pt      12.06915250       5.43742135       2.37421797        3       0.00000000      -0.02798307       0.03178772       0.07407491
Ni       5.34508095       7.73326311       2.33683106        3       1.00000000      -0.00901974       0.02672338       0.07084201
Pt       8.02245469       7.76137432       2.35461085        3       0.00000000       0.03281304       0.08364911       0.07890629
Pt      10.70887605       7.76924586       2.38631612        3       0.00000000      -0.11709936       0.02179879       0.18505806
Ni      13.41647913       7.74285419       2.32774172        3       1.00000000       0.00142378      -0.00265347       0.09490287
Pt      -0.00501938       1.59269538       4.61943217        2       0.00000000       0.04929524       0.05881357      -0.06208690
Pt       2.66937902       1.53772713       4.58931472        2       0.00000000      -0.00869095      -0.04661306      -0.12475133
Pt       5.32260225       1.48978779       4.61351953        2       0.00000000      -0.05511067      -0.12158169      -0.12822690
Pt       8.06591528       1.53357816       4.60456548        2       0.00000000       0.02912023      -0.10461633      -0.05746830
Ni       1.30551290       3.86650950       4.65438518        2       1.00000000      -0.06548748      -0.03709939      -0.03265415
Pt       3.97987078       3.87059060       4.61775320        2       0.00000000      -0.04049973       0.02729524      -0.07960559
Pt       6.72265774       3.86426846       4.61518198        2       0.00000000       0.01072746      -0.01903410      -0.09510709
Ni       9.40234403       3.87607073       4.65194717        2       1.00000000       0.08259101      -0.00847335      -0.01593186
Pt       2.66776432       6.21310927       4.60566407        2       0.00000000       0.02651924       0.10382494      -0.06755631
Pt       5.34325326       6.24030134       4.59124570        2       0.00000000       0.00249800       0.09734250      -0.08359631
Pt       8.06236519       6.20385842       4.61268720        2       0.00000000      -0.01277182       0.07984986      -0.06679224
Pt      10.70881205       6.12567393       4.64828315        2       0.00000000       0.03619261      -0.15627731       0.01446204
Ni       4.01026035       8.50016932       4.61870505        2       1.00000000      -0.03383782       0.00647679      -0.13330553
Pt       6.68061530       8.50314855       4.59904884        2       0.00000000      -0.08764450       0.03652386      -0.09192600
Ni       9.38321781       8.51113383       4.63708270        2       1.00000000       0.01900277      -0.02238949      -0.08707144
Pt      12.05153659       8.49722593       4.61619686        2       0.00000000       0.01423518      -0.06045615      -0.04379518
Pt      -0.01466727       0.01521685       6.86415787        1       0.00000000       0.00345611       0.02731503      -0.10444221
Pt       2.71188635       0.00769585       6.85457665        1       0.00000000       0.03660966      -0.00087611      -0.13052499
Ni       5.34929089       0.00982642       6.86718880        1       1.00000000       0.00200730      -0.01809960      -0.27690386
Pt       8.00069436       0.00816740       6.92411135        1       0.00000000      -0.00772453      -0.00995545       0.04777488
Pt       1.31682010       2.36457445       6.92870748        1       0.00000000       0.01507862       0.00332297       0.01030390
Pt       4.01796503       2.29592088       6.87763500        1       0.00000000      -0.00424480      -0.00766683      -0.07174383
Pt       6.68174845       2.29419953       6.86690930        1       0.00000000       0.00311158      -0.03724803      -0.10337552
Pt       9.38611331       2.37005528       6.84522747        1       0.00000000       0.01461276       0.02709459      -0.06271107
Pt       2.61637691       4.63880749       6.85822530        1       0.00000000      -0.08645358       0.02564492      -0.11229665
Pt       5.35163772       4.64365793       6.87287332        1       0.00000000       0.00634832       0.00156770      -0.11222432
Pt       8.08444636       4.64929702       6.84798040        1       0.00000000       0.09521482       0.04587470      -0.10749688
Ni      10.71050255       4.64355150       6.84550933        1       1.00000000       0.00547003      -0.01828985      -0.32139099
Pt       4.00220199       6.97145093       6.87671737        1       0.00000000      -0.00527726       0.01643533      -0.03353572
Pt       6.70449869       6.96021157       6.95167239        1       0.00000000       0.03053237      -0.00346517       0.05299494
Pt       9.40370472       6.97661649       6.85185268        1       0.00000000       0.03095531       0.06616710      -0.07532268
Pt      12.01844316       6.96890735       6.86871425        1       0.00000000      -0.00614454       0.01865632       0.01362562
