64
Lattice="10.223015300723416 -0.007702217108189463 -0.0034956120243647224 5.104837334680552 8.800240578265397 -0.0037171541679453537 0.0 0.0 21.488794158613505" Properties=species:S:1:pos:R:3:tags:I:1:initial_magmoms:R:1:forces:R:3 unique_id=afb966ff96de4c5dba12834aec66550a energy=-370.92070055356345 stress="0.0050498061714885495 -1.090664071650555e-05 -7.15889825157599e-05 -1.090664071650555e-05 0.00453343927248312 2.3474932241012426e-05 -7.15889825157599e-05 2.3474932241012426e-05 -0.0022288504427076857" pbc="T T T"
Ni       0.00912978       0.01459539       0.12740258        1       1.00000000       0.08000489      -0.03242891      -0.38214135
Ni       2.54923705      -0.00320417       0.16096385        2       1.00000000       0.00035174      -0.00711717      -0.30351603
Ni       5.11469238      -0.01255235       0.10232451        1       1.00000000       0.00219424       0.20485711      -0.35919501
Ni       7.66604546      -0.04566458       0.11608722        1       1.00000000      -0.12427738      -0.07426807      -0.32221930
Ni       1.23986913       2.21164365       0.05201716        1       1.00000000      -0.04587195       0.04499006       0.32471294
Pt       3.78039315       2.21610304       0.12568444        1       0.00000000       0.03399280      -0.00286659      -0.63075126
Pt       6.44266340       2.21025383       0.04725553        0       0.00000000       0.03151991      -0.06495223      -0.03349833
Ni       8.98276753       2.22906904       0.08740166        1       1.00000000       0.01138221       0.15900456      -0.15944286
Ni       2.54432689       4.43046905       0.01176593        0       1.00000000       0.00799338      -0.01119757       0.21175108
Ni       5.09161437       4.42066676       0.04509123        0       1.00000000      -0.06002347      -0.03662436       0.24084871
Ni       7.70365434       4.40344903       0.04934294        0       1.00000000       0.12383601       0.03498354       0.29011788
Ni      10.21229257       4.38477918       0.01892577        0       1.00000000      -0.06646340      -0.00705498       0.32139399
Ni       3.79963196       6.59311062       0.04448117        0       1.00000000      -0.02405078       0.01490307       0.27348831
Pt       6.37861881       6.58753186       0.04103926        0       0.00000000       0.01934470       0.07961861      -0.07574237
Ni       8.94629796       6.57734241       0.10075814        1       1.00000000      -0.10486629      -0.14062823      -0.28562036
Ni      11.51864481       6.58942610       0.00000000        0       1.00000000       0.05013056      -0.01822625       0.15701721
Ni       1.28702066       0.75906801       2.08308716        3       1.00000000       0.01602689       0.13369580      -0.00801906
Ni       3.83071916       0.74048151       2.13663174        3       1.00000000       0.08630090       0.01046342       0.14818883
Ni       6.37887249       0.75214523       2.16814074        4       1.00000000      -0.03164487       0.14134556       0.31032205
Pt       8.94243125       0.77369163       2.10467487        3       0.00000000      -0.03635638       0.13498663       0.06026175
Ni       2.53969591       2.94620762       2.13993662        3       1.00000000       0.01278246       0.05225249      -0.01064503
Ni       5.10857413       2.94879839       2.16967207        4       1.00000000      -0.04362801       0.01090277       0.14135453
Ni       7.68357196       2.97031217       2.14138552        3       1.00000000       0.07163412       0.11002441       0.10225595
Ni      10.21731398       2.93277560       2.13007147        3       1.00000000       0.02590073       0.04654915       0.13980039
Ni       3.84742401       5.11809523       2.09770552        3       1.00000000       0.04725764      -0.10473501      -0.11371696
Ni       6.39871160       5.11053163       2.11883775        3       1.00000000       0.04336293      -0.05639998       0.00633955
Ni       8.90730761       5.09216141       2.13136626        3       1.00000000      -0.00559414      -0.09344577       0.10738334
Pt      11.52014364       5.07519332       2.13224773        3       0.00000000       0.01211025      -0.05122322       0.05420466
Ni       5.08914091       7.30560585       2.09532178        3       1.00000000      -0.10104412      -0.11300452      -0.02525288
Ni       7.65136190       7.31193265       2.10888092        3       1.00000000       0.02549696      -0.13163738       0.10866416
Pt      10.24199938       7.33265681       2.07714321        3       0.00000000       0.06752044      -0.03939029       0.06961864
Ni      12.78800992       7.30605997       2.09314553        3       1.00000000       0.07713868      -0.08432949      -0.00735592
Ni      -0.02107158       1.53535244       4.25628856        6       1.00000000      -0.08588224       0.09549029      -0.12313440
Pt       2.52152498       1.56274034       4.17721874        5       0.00000000      -0.04545518       0.01374984       0.05518826
Ni       5.15036595       1.46564392       4.22189456        5       1.00000000       0.02832500      -0.08310898      -0.28434144
Ni       7.65283488       1.46775294       4.24988943        5       1.00000000       0.03026299      -0.08818449      -0.16803119
Ni       1.24442238       3.70606811       4.30350154        6       1.00000000      -0.06687614       0.01561190      -0.01524482
Ni       3.79722499       3.70219345       4.22321101        5       1.00000000      -0.13234637      -0.03639219      -0.31174327
Pt       6.42985260       3.61742916       4.24195230        5       0.00000000       0.02920273      -0.02177212      -0.04273965
Ni       8.98001145       3.69055685       4.23187869        5       1.00000000       0.10260197       0.04116045      -0.23868806
Ni       2.49729410       5.82503656       4.30379993        6       1.00000000      -0.12908230      -0.07692052      -0.05439762
Pt       5.05778691       5.80004493       4.25445081        6       0.00000000      -0.02217092      -0.04703261      -0.16590330
Ni       7.69631756       5.80755261       4.23842136        5       1.00000000       0.10423271      -0.07967895      -0.29050943
Ni      10.24893310       5.80207241       4.28154082        6       1.00000000       0.00435628      -0.01998648      -0.10208671
Pt       3.74339818       8.04964001       4.21168986        5       0.00000000      -0.11087425      -0.02341511       0.03527343
Pt       6.37727436       8.04844994       4.16752553        5       0.00000000      -0.07665320       0.03925590      -0.16815327
Pt       8.98411723       8.03656738       4.20944608        5       0.00000000       0.02200634       0.00055966      -0.03964707
Ni      11.49476421       8.04088876       4.23706191        5       1.00000000      -0.06164136      -0.04985787      -0.17772500
Pt      -0.00846541      -0.02960779       6.46758280        9       0.00000000      -0.04350063       0.09720267       0.39285428
Pt       2.54253275      -0.00186696       6.48879416        9       0.00000000       0.11331837       0.01310839       0.50194991
Pt       5.13389924      -0.00489989       6.42956641        8       0.00000000      -0.02416469       0.12182393       0.46892883
Pt       7.64899600      -0.04712273       6.44891634        8       0.00000000       0.00213412       0.11378480       0.39533436
Ni       1.26659158       2.26809942       6.39432156        8       1.00000000       0.05534058       0.05761711      -0.16224430
Pt       3.84818760       2.32743411       6.34365800        7       0.00000000       0.08391093       0.05583511       0.62013539
Ni       6.39412887       2.23287477       6.32991509        7       1.00000000      -0.01230004      -0.03016948       0.32263059
Pt       8.94616569       2.29835938       6.38392815        8       0.00000000      -0.01914655      -0.09240690       0.02895660
Ni       2.52065908       4.44501578       6.37721360        8       1.00000000       0.04146711      -0.02782280      -0.30501068
Ni       5.11857544       4.43556511       6.41645536        8       1.00000000       0.02963940       0.00173449      -0.11506053
Ni       7.61908726       4.39217636       6.39657496        8       1.00000000      -0.12111965       0.00866905      -0.13721962
Ni      10.28234601       4.38735601       6.37294430        8       1.00000000       0.11622811      -0.02572018      -0.25388304
Ni       3.80123601       6.52296359       6.41363414        8       1.00000000      -0.03520845      -0.07142898      -0.16813237
Ni       6.36268131       6.53420978       6.33551942        7       1.00000000       0.08052133      -0.00268623       0.21042610
Pt       8.95193757       6.45324775       6.42596399        8       0.00000000      -0.05646999      -0.04015868       0.15381853
Ni      11.52352444       6.52279133       6.37443192        8       1.00000000      -0.00311767       0.03209184      -0.21220776
