64
Lattice="10.03728651433838 0.01287516504938813 -0.08406433610047238 5.0297934771799335 8.704066128573452 -0.052781648698152314 -0.06863824300399511 -0.010134707547166319 8.628616403937132" Properties=species:S:1:pos:R:3:tags:I:1:initial_magmoms:R:1:forces:R:3 unique_id=93d96e0e0b9c4150918687485907c4aa stress="5.8456212767475646e-05 -3.446587368811994e-06 1.1418983729500445e-05 -3.446587368811994e-06 5.538463667609933e-05 -1.4702161259505512e-05 1.1418983729500445e-05 -1.4702161259505512e-05 7.224843120692132e-05" energy=-387.3747308280077 pbc="T T T"
Ni       0.01638868      -0.05100984       0.20555688        4       1.00000000       0.04629980      -0.10944784       0.34635945
Ni       2.52282343      -0.04337533       0.09277979        4       1.00000000      -0.02470670      -0.09217261       0.13295893
Ni       4.95605123      -0.00954344       0.04325750        4       1.00000000      -0.11717641      -0.06195475       0.16512565
Pt       7.54835209      -0.00279694      -0.04739158        4       0.00000000      -0.05496690       0.00042399      -0.26006762
Pt       1.21135689       2.10946724       0.07398306        4       0.00000000      -0.11178590      -0.09861685      -0.09321706
Ni       3.77710180       2.11068241       0.04754799        4       1.00000000      -0.02211960      -0.09975448       0.15854016
Ni       6.28337164       2.18219360       0.01215349        4       1.00000000      -0.02061578      -0.01847470       0.13705242
Ni       8.74597594       2.22723115       0.02680034        4       1.00000000      -0.13408640       0.04801002       0.11258523
Pt       2.50733082       4.38193282       0.12528013        4       0.00000000      -0.03417091       0.02073531       0.41464220
Pt       5.11079869       4.40436148      -0.03783203        4       0.00000000       0.12644345       0.04647112      -0.25489843
Ni       7.58224383       4.36893738       0.03397349        4       1.00000000       0.05201154       0.06688481       0.15245545
Ni       9.96464230       4.37935017      -0.00197425        4       1.00000000      -0.07515524       0.01499129       0.09328378
Ni       3.80141577       6.55472941       0.06662203        4       1.00000000       0.06195037      -0.02218925       0.14387162
Ni       6.31424393       6.57799231       0.05470708        4       1.00000000       0.10855225       0.07339094       0.14881654
Ni       8.76840287       6.53266952       0.10882720        4       1.00000000      -0.06488868      -0.04852916       0.26464010
Ni      11.23366319       6.56610444      -0.02379605        4       1.00000000      -0.20556233       0.06993393       0.05652036
Ni       1.24041787       0.70230077       2.18041992        3       1.00000000       0.00985207       0.02865600       0.08250666
Ni       3.69151955       0.68307115       2.12585345        3       1.00000000      -0.05004762      -0.00848342       0.10231772
Pt       6.28208343       0.68255093       2.15227822        3       0.00000000       0.16043103      -0.09148937      -0.13082785
Ni       8.81831874       0.73957279       2.13152661        3       1.00000000      -0.00203745      -0.03760557       0.04528172
Ni       2.48346476       2.84828018       2.18711332        3       1.00000000      -0.07586746      -0.05066286       0.00423761
Pt       4.99258391       2.94953716       2.15547766        3       0.00000000       0.01766280       0.18639591      -0.17749169
Ni       7.56107271       2.93839431       2.11076285        3       1.00000000      -0.04179048       0.01894681       0.09101696
Ni       9.96602158       2.88288479       2.08498707        3       1.00000000      -0.10223620      -0.01566479      -0.04108191
Ni       3.78248179       5.14704137       2.20190312        3       1.00000000       0.01194445       0.05210886       0.06965092
Ni       6.30740287       5.13184642       2.14958779        3       1.00000000      -0.01697462       0.05207997       0.05962510
Ni       8.71812551       5.08406715       2.10609659        3       1.00000000      -0.09080054      -0.00265807       0.18985796
Pt      11.21504540       5.15455063       2.11165985        3       0.00000000      -0.01513934       0.07722777      -0.14272371
Ni       5.00854642       7.24127592       2.10568969        3       1.00000000       0.02221042      -0.05608422       0.09267553
Ni       7.52496173       7.24588758       2.08223130        3       1.00000000      -0.02636392      -0.01479014       0.10683477
Ni       9.96445122       7.26918285       2.08946461        3       1.00000000      -0.16073151       0.10901825       0.14069004
Ni      12.59346111       7.24764313       2.08821267        3       1.00000000       0.09144219       0.06787354      -0.01652288
Ni      -0.08945429       1.43904871       4.26268307        2       1.00000000      -0.09604015      -0.11879715      -0.06811283
Ni       2.47680490       1.43592670       4.27024608        2       1.00000000       0.00999235      -0.06258950      -0.07756878
Pt       4.98387361       1.43506387       4.32512059        2       0.00000000       0.01709843      -0.01212114       0.09291624
Ni       7.54146047       1.47190287       4.25089233        2       1.00000000       0.03293990       0.07628271      -0.09838552
Pt       1.16732575       3.57382439       4.24379360        2       0.00000000       0.00883765      -0.00014252       0.09859092
Ni       3.75563356       3.65577050       4.24030604        2       1.00000000      -0.10107998       0.06396894      -0.09469478
Ni       6.28640893       3.66225673       4.25800371        2       1.00000000       0.08682226      -0.01462282      -0.13971597
Ni       8.70100927       3.63106427       4.21898626        2       1.00000000      -0.05736136       0.01870715      -0.08683528
Ni       2.51298433       5.85923365       4.25226921        2       1.00000000       0.03220293      -0.00845032      -0.01668390
Ni       4.98211784       5.77811329       4.24002558        2       1.00000000       0.02502515       0.00901954      -0.10815080
Ni       7.50333360       5.75343717       4.19400254        2       1.00000000       0.04485019      -0.02290407      -0.01917816
Ni       9.98717931       5.83281906       4.20650242        2       1.00000000      -0.11524780       0.01057283       0.07527129
Ni       3.70049055       7.96308177       4.22258726        2       1.00000000       0.04518763       0.03032171      -0.11818920
Pt       6.26551492       7.94726822       4.17726308        2       0.00000000      -0.03344732      -0.04222473       0.18057253
Ni       8.77959741       7.95380911       4.18003867        2       1.00000000       0.00988769      -0.09170148      -0.06342156
Ni      11.28118186       7.93216753       4.21095432        2       1.00000000      -0.05844384      -0.12315515      -0.13635483
Pt      -0.07410920       0.00544321       6.42861670        1       0.00000000       0.01626280       0.04480539       0.23222996
Ni       2.49880348       0.03284596       6.37354856        1       1.00000000       0.09827850       0.08109540      -0.07988036
Ni       4.99696246       0.00487333       6.36656103        1       1.00000000       0.11343619      -0.03524212       0.03698550
Ni       7.44215009       0.00904790       6.19858382        1       1.00000000      -0.03158310       0.07427602      -0.42240485
Ni       1.21268930       2.15813527       6.29987407        1       1.00000000       0.04627524      -0.02670847      -0.23205394
Ni       3.73552980       2.14962801       6.36335072        1       1.00000000       0.07061881       0.02626847      -0.00665259
Ni       6.26250697       2.19175887       6.34267453        1       1.00000000       0.15030598       0.05696749       0.00491140
Ni       8.70969049       2.21654126       6.28859596        1       1.00000000       0.00652023       0.06362930      -0.12083924
Pt       2.51469685       4.36870508       6.30053604        1       0.00000000       0.07052792       0.02030379      -0.28562350
Ni       5.03511437       4.34052096       6.20893244        1       1.00000000       0.12293945      -0.06819147      -0.40133240
Ni       7.47581164       4.31598992       6.30242938        1       1.00000000       0.04767658      -0.01727777      -0.07095248
Ni       9.96741811       4.32502549       6.29334404        1       1.00000000       0.00446084      -0.05431033      -0.08752282
Ni       3.73168369       6.53241074       6.31817412        1       1.00000000       0.07420636       0.07049809      -0.17323380
Ni       6.21811004       6.47446605       6.32912829        1       1.00000000      -0.01867186      -0.10403831      -0.06482541
Pt       8.74670403       6.52205656       6.32228866        1       0.00000000       0.01753629      -0.00325051       0.20966753
Ni      11.27843006       6.57037264       6.25729056        1       1.00000000       0.09840966       0.05444061      -0.15324811
