64
Lattice="10.30975870860773 -0.01270080146990753 -0.016492770350079625 5.143880137582501 8.85608103263937 -0.07086600347377568 -0.013466290600866238 -0.059038342312465616 8.784764552934943" Properties=species:S:1:pos:R:3:tags:I:1:initial_magmoms:R:1:forces:R:3 unique_id=7bbedd1299a044bea91d65db74498d8c stress="0.00019653162963154114 2.3115155294927035e-06 -1.9926158851883286e-06 2.3115155294927035e-06 0.00020164399825630536 2.728815852155315e-05 -1.9926158851883286e-06 2.728815852155315e-05 0.000194461523147213" energy=-397.69199626573544 pbc="T T T"
Ni      -0.00077171       0.01836457       0.18024627        4       1.00000000       0.03727325       0.03446203       0.24076948
Ni       2.57241382      -0.00421756       0.20647867        4       1.00000000      -0.00376717      -0.02170487       0.39661069
Ni       5.15059640      -0.02812317       0.16154752        4       1.00000000      -0.04923620       0.10631183       0.28653513
Ni       7.73949921      -0.06132105       0.07834064        4       1.00000000      -0.00208096      -0.18634226       0.11579543
Ni       1.25310696       2.21347381       0.09029490        4       1.00000000      -0.14130001      -0.02632366       0.21436672
Pt       3.79176830       2.20664619       0.08802249        4       0.00000000      -0.09469586       0.00241199      -0.12550417
Pt       6.46384416       2.14439078       0.16466243        4       0.00000000       0.07068729      -0.11341945       0.20160024
Ni       9.05959885       2.19411252       0.12010792        4       1.00000000       0.09205734      -0.00394376       0.10524235
Ni       2.55062229       4.43371744       0.02724207        4       1.00000000      -0.01727534      -0.00380174       0.03499241
Ni       5.13525931       4.42476374       0.11755973        4       1.00000000       0.08088327      -0.07626439       0.24128686
Pt       7.80297224       4.42438998       0.06212221        4       0.00000000       0.11458945      -0.02911813      -0.08311236
Ni      10.33043428       4.40286705       0.01753575        4       1.00000000       0.07415685      -0.10409688       0.02127008
Ni       3.82199848       6.65354873       0.12164776        4       1.00000000      -0.05484777       0.01835742       0.27687451
Pt       6.41157999       6.67913504       0.12862056        4       0.00000000      -0.07055470      -0.02915758       0.11021142
Ni       9.03426951       6.64348470       0.00773320        4       1.00000000      -0.01609154      -0.01438393      -0.03751949
Ni      11.60294575       6.62994491      -0.00557079        4       1.00000000       0.06737518      -0.04046694      -0.05314053
Ni       1.29745107       0.74206426       2.15862709        3       1.00000000      -0.01865550       0.12554677      -0.02699764
Ni       3.85386248       0.73977648       2.18984664        3       1.00000000       0.04508913       0.04422367       0.06603630
Ni       6.43516507       0.72355328       2.22892739        3       1.00000000       0.00217352       0.06362533       0.16980217
Pt       9.01537616       0.74778699       2.15824453        3       0.00000000      -0.06680211       0.06030148       0.06502170
Ni       2.55442467       2.90976513       2.17923666        3       1.00000000      -0.08833560       0.02685033      -0.01005898
Ni       5.13960693       2.90941783       2.20948770        3       1.00000000      -0.09442770      -0.14527813      -0.00600306
Ni       7.75397404       2.94976670       2.20835304        3       1.00000000       0.13677998       0.06334508      -0.03593667
Ni      10.29434622       2.91933191       2.15577479        3       1.00000000       0.00020175       0.02054245       0.03882119
Pt       3.89871026       5.14330864       2.18172365        3       0.00000000      -0.00732643      -0.05608365       0.06521508
Ni       6.45979054       5.14716285       2.18871212        3       1.00000000       0.09572903       0.10470482      -0.04374031
Ni       8.99011631       5.12495246       2.20199298        3       1.00000000      -0.00416548      -0.05182002       0.16610061
Pt      11.56497128       5.10671845       2.10902237        3       0.00000000      -0.01691409      -0.03384351      -0.02201122
Ni       5.13543506       7.36999348       2.13963749        3       1.00000000      -0.08142672      -0.02005875      -0.07655974
Ni       7.72138428       7.35782909       2.13664053        3       1.00000000       0.02817461      -0.09935905      -0.07092959
Pt      10.27093228       7.36839071       2.05172962        3       0.00000000      -0.02169311      -0.11194451      -0.01112066
Ni      12.87665481       7.36290869       2.08993548        3       1.00000000      -0.06310392      -0.00788416      -0.05577029
Ni      -0.02294246       1.48768810       4.33068990        2       1.00000000       0.00283388       0.07122936      -0.12357880
Pt       2.59576711       1.50456948       4.29257945        2       0.00000000      -0.01343536      -0.00449473      -0.06949153
Ni       5.14691986       1.46376664       4.30090759        2       1.00000000       0.04232869       0.01181402      -0.16436003
Ni       7.74398492       1.46243795       4.30477207        2       1.00000000       0.05842268       0.09302488      -0.11443423
Pt       1.23140282       3.70432193       4.38282591        2       0.00000000      -0.05662693      -0.03451030      -0.07603917
Ni       3.85900387       3.67925629       4.31847438        2       1.00000000      -0.01234437       0.03460552      -0.14158691
Pt       6.45900493       3.67509073       4.22089614        2       0.00000000      -0.05943463      -0.06520698       0.09416605
Ni       9.01105706       3.67698213       4.29783869        2       1.00000000       0.01753639       0.02583607      -0.24553026
Ni       2.55504861       5.84295468       4.32975655        2       1.00000000      -0.03281854      -0.03033706      -0.07144500
Ni       5.12851314       5.84176237       4.28685727        2       1.00000000       0.02204635      -0.00637846      -0.00773767
Ni       7.76789420       5.81519019       4.27377036        2       1.00000000       0.08903398      -0.06066601      -0.19957079
Ni      10.26732324       5.83363237       4.34614931        2       1.00000000      -0.06181845      -0.00349865      -0.09202870
Pt       3.83713793       8.08080989       4.25298603        2       0.00000000       0.01418821      -0.08357718       0.08126830
Pt       6.41322030       8.06037778       4.17284573        2       0.00000000       0.00111642      -0.02564488       0.02978551
Pt       9.00324763       8.02525195       4.25814356        2       0.00000000      -0.00894834       0.03034923       0.12540077
Pt      11.60338576       8.06915692       4.27298238        2       0.00000000      -0.02321213      -0.01752882      -0.00994147
Pt      -0.02335942       0.00519059       6.57632488        1       0.00000000      -0.02148904       0.09246957       0.11685451
Pt       2.58925170       0.01017874       6.59451926        1       0.00000000       0.03326920       0.12047964       0.25808595
Pt       5.18204331      -0.11250830       6.57925533        1       0.00000000       0.07155166      -0.16738984       0.14677470
Ni       7.71885112      -0.05376953       6.51500709        1       1.00000000       0.07414351       0.09999354      -0.14179728
Ni       1.29257740       2.23615137       6.50570981        1       1.00000000       0.05190857       0.15273406      -0.05384187
Ni       3.82699361       2.20248340       6.42178846        1       1.00000000      -0.01007446       0.02519009      -0.27087956
Pt       6.44770979       2.14895728       6.41455835        1       0.00000000       0.03032141       0.03497516      -0.23653614
Pt       9.05308022       2.25930513       6.46523518        1       0.00000000       0.17487248       0.19008890       0.00437598
Ni       2.50940827       4.36732157       6.48206145        1       1.00000000      -0.14059436      -0.00991770      -0.10631366
Pt       5.06810111       4.34578415       6.47812074        1       0.00000000      -0.09801432       0.00253016       0.03612963
Ni       7.77130188       4.40326260       6.38699923        1       1.00000000       0.08232307       0.08553211      -0.29513810
Ni      10.30569294       4.43068643       6.46425494        1       1.00000000       0.00804959       0.23469675      -0.07747542
Pt       3.73130518       6.58282969       6.49426624        1       0.00000000      -0.15288745       0.04051743       0.17192129
Pt       6.48952241       6.54065563       6.38958013        1       0.00000000       0.05076451       0.01276616      -0.28812794
Ni       9.04494801       6.52598109       6.44226485        1       1.00000000       0.05176614      -0.13792051      -0.21367365
Ni      11.54992609       6.53486560       6.44737002        1       1.00000000      -0.11724882      -0.20714937      -0.22338216
