64
Lattice="10.24376664623898 -0.019244935398231477 0.01365615114354962 5.105216720170433 8.82820744800985 0.024288872320162868 0.0 0.0 21.522400464929934" Properties=species:S:1:pos:R:3:tags:I:1:initial_magmoms:R:1:forces:R:3 unique_id=438fd683ef2042cea1d3be774f3e7deb energy=-370.4959690562542 stress="0.003690449949875819 -0.0001274324013084852 0.00026192051598402803 -0.0001274324013084852 0.0034204666416966494 0.0003088615986064097 0.00026192051598402803 0.0003088615986064097 -0.002839456004668007" pbc="T T T"
Ni       0.03419365       0.02306275       0.10677257        1       1.00000000       0.17041870       0.10525024      -0.68795808
Ni       2.54703040      -0.02996624       0.16986250        2       1.00000000       0.00424787      -0.05030911      -0.26462243
Ni       5.11031800      -0.04513772       0.03373457        0       1.00000000      -0.12414576       0.02594914       0.05847481
Ni       7.69330428      -0.03969341       0.01760896        0       1.00000000       0.05253956      -0.02152304      -0.07472446
Ni       1.23941672       2.22510736       0.07762826        1       1.00000000       0.00039794       0.03424716       0.33577806
Pt       3.77866423       2.21809738       0.17351181        2       0.00000000       0.00471280       0.03695119      -0.76981078
Pt       6.46026669       2.25597446       0.00000000        0       0.00000000      -0.03413251       0.23163421      -0.43293787
Ni       9.00667811       2.23773949       0.04457899        0       1.00000000       0.04442022       0.15403852       0.09431457
Ni       2.52430311       4.44515284       0.07305707        1       1.00000000      -0.05053680       0.04481157       0.34961551
Ni       5.10066055       4.45495020       0.04912191        0       1.00000000      -0.12309414      -0.03047629       0.10900818
Ni       7.72594235       4.43367935       0.05415440        1       1.00000000       0.21684223       0.06013032       0.04367442
Ni      10.24323712       4.39516601       0.08413971        1       1.00000000       0.02705886       0.13149161       0.31868873
Ni       3.83048866       6.59363155       0.02306620        0       1.00000000      -0.01651937      -0.07069590       0.03595828
Ni       6.41484564       6.61492166       0.03214836        0       1.00000000       0.12895842       0.05549266       0.02121719
Ni       8.92976946       6.59306564       0.13320885        1       1.00000000      -0.11843936      -0.11525210      -0.14274985
Ni      11.50609819       6.58071164       0.03781181        0       1.00000000      -0.10043575      -0.14381186       0.16138757
Ni       1.32421157       0.77959824       2.11526029        3       1.00000000       0.06876470       0.16875891       0.01144797
Ni       3.79407839       0.70750527       2.16368136        4       1.00000000      -0.03036881      -0.10875005       0.15551009
Pt       6.36760520       0.74260050       2.13614616        3       0.00000000      -0.05685216       0.03248286      -0.02133787
Pt       9.02762497       0.81543386       2.11834104        3       0.00000000       0.05010055       0.06023370       0.05627350
Ni       2.52455917       2.98731406       2.17042960        4       1.00000000      -0.07846069       0.14615227       0.01529549
Ni       5.08003470       2.97668501       2.19722862        4       1.00000000      -0.06522013       0.02184881       0.21189238
Ni       7.72214840       2.97326422       2.15729520        4       1.00000000       0.08840111       0.00425944       0.05499264
Ni      10.27640688       2.97746569       2.13690541        3       1.00000000       0.09644570       0.10477399      -0.01611896
Ni       3.81313512       5.08568767       2.16952231        4       1.00000000      -0.00500584      -0.16629288       0.02020851
Pt       6.43788558       5.11435221       2.12546443        3       0.00000000       0.06718655      -0.04996893      -0.02669798
Ni       8.97372324       5.10674657       2.15153220        4       1.00000000       0.07513831      -0.14248132      -0.03580402
Ni      11.50522086       5.08207451       2.14861853        3       1.00000000      -0.05971470      -0.07851207      -0.08616394
Pt       5.15131517       7.33580440       2.10305694        3       0.00000000      -0.02118300      -0.07878413      -0.02738308
Ni       7.68568792       7.36304187       2.16078732        4       1.00000000      -0.03708507      -0.06880770       0.10122664
Pt      10.15258336       7.28457718       2.19496320        4       0.00000000       0.00231681      -0.08726160       0.04078526
Pt      12.77226083       7.24316111       2.14692849        3       0.00000000       0.00209141      -0.15956866      -0.06861643
Ni       0.01379854       1.49535431       4.32673640        6       1.00000000       0.02119991      -0.00799568      -0.09298798
Pt       2.52886921       1.49212054       4.22463499        5       0.00000000      -0.07486880      -0.03893551      -0.07752709
Pt       5.10283298       1.41457138       4.31912857        6       0.00000000      -0.13307301      -0.11325978      -0.05004669
Pt       7.71724216       1.45516642       4.39959655        7       0.00000000       0.07608724      -0.05638527      -0.04700860
Pt       1.31328820       3.76849100       4.31999415        6       0.00000000      -0.01617665       0.05899500       0.01278719
Ni       3.83360853       3.76102449       4.29801714        6       1.00000000      -0.03602773       0.09318883      -0.17782996
Pt       6.34941140       3.75051656       4.37881157        7       0.00000000      -0.04328077       0.02864089      -0.05004738
Pt       8.98422389       3.74209054       4.33717957        6       0.00000000       0.03949182       0.12867330      -0.00305097
Ni       2.55253481       5.87655261       4.36815043        7       1.00000000      -0.03343275      -0.02140716      -0.02211106
Ni       5.07617405       5.86209736       4.37284167        7       1.00000000      -0.06130142      -0.02257426      -0.07161441
Ni       7.70196264       5.89983915       4.33355316        6       1.00000000       0.10584336       0.01841906      -0.18400641
Ni      10.26429828       5.91929147       4.34415347        6       1.00000000       0.06171945       0.06211214      -0.06688828
Pt       3.78399982       8.01068402       4.37991300        7       0.00000000      -0.01512844      -0.06736707      -0.03814964
Pt       6.42751650       8.01695498       4.30891296        6       0.00000000       0.03790779      -0.10292678       0.02364054
Ni       8.98004783       8.04404371       4.33354776        6       1.00000000      -0.05405290      -0.10319751      -0.08307203
Ni      11.48335409       8.02186909       4.39725502        7       1.00000000      -0.08052350      -0.12056457      -0.01734779
Pt      -0.05803753       0.03254650       6.52151389        9       0.00000000      -0.07826435       0.07118202       0.42650901
Pt       2.59282279      -0.00643194       6.52240046        9       0.00000000       0.12107883      -0.01766564       0.33794444
Ni       5.18595115      -0.02533511       6.45456835        9       1.00000000      -0.02703557      -0.05768278      -0.03461021
Ni       7.63424503      -0.03407678       6.48312303        9       1.00000000      -0.03028498      -0.08374872       0.04210373
Ni       1.24638266       2.26222262       6.47058386        9       1.00000000      -0.01220628      -0.00321788      -0.09847189
Pt       3.85690894       2.31890676       6.44488061        8       0.00000000       0.02681988       0.23561689       0.83233010
Ni       6.43060680       2.21075657       6.40294625        8       1.00000000      -0.06140406       0.07141239       0.71098584
Ni       8.96419503       2.23749771       6.49204290        9       1.00000000       0.01441489       0.07989131       0.01446475
Ni       2.55227837       4.48357927       6.46536826        9       1.00000000       0.03843376       0.09826635      -0.20343523
Ni       5.11690325       4.48489702       6.47341997        9       1.00000000      -0.11947310       0.04197199      -0.03214526
Ni       7.66348773       4.40409378       6.49480917        9       1.00000000       0.02438152      -0.04373169      -0.03945562
Ni      10.27114155       4.39435197       6.49990259        9       1.00000000       0.06044085       0.01193062      -0.12768948
Ni       3.81245161       6.57414225       6.47458013        9       1.00000000      -0.00936911      -0.05338046      -0.08800051
Ni       6.36860326       6.56150896       6.47120331        9       1.00000000       0.00952815      -0.00788386      -0.10327803
Pt       9.00535400       6.54667428       6.47267554        9       0.00000000       0.02018268      -0.03288624       0.04871934
Ni      11.55391639       6.61524599       6.45698650        9       1.00000000       0.04952563      -0.09150093      -0.28153448
