64
Lattice="10.275967897966886 -0.009723363824121947 -0.023889112710532623 5.129563268901514 8.846978938797484 -0.013554729337721984 0.0 0.0 21.53059051766946" Properties=species:S:1:pos:R:3:tags:I:1:initial_magmoms:R:1:forces:R:3 unique_id=f7b29ad9c22c4c71910e589ea85524a8 energy=-374.2521435064235 stress="0.0050001038363523724 -0.00012870674459021864 -7.459343642229986e-05 -0.00012870674459021864 0.004712822821800347 0.00013392942529234916 -7.459343642229986e-05 0.00013392942529234916 -0.0028831984188099208" pbc="T T T"
Ni      -0.00217293       0.02460017       0.15210055        2       1.00000000       0.06507431       0.00218539      -0.30815465
Ni       2.56032816       0.00408051       0.17705302        2       1.00000000      -0.03043806       0.03061487      -0.22385516
Ni       5.13221857      -0.02130805       0.11089297        1       1.00000000      -0.01035724       0.15194772      -0.29425129
Ni       7.70688621      -0.05303579       0.12037364        1       1.00000000      -0.10943827      -0.10573172      -0.25160237
Ni       1.24376781       2.21843999       0.15800926        2       1.00000000      -0.06964230       0.04033885      -0.05113099
Pt       3.78515011       2.21495237       0.05849105        1       0.00000000      -0.03283831      -0.02756255      -0.05415081
Pt       6.44322532       2.15191438       0.05492684        1       0.00000000       0.05329640      -0.08277300      -0.05437974
Ni       9.03161008       2.20627509       0.09007488        1       1.00000000       0.03170322       0.12105121      -0.15183436
Ni       2.53580513       4.44354050       0.01551345        0       1.00000000      -0.09049931      -0.03700707       0.13917856
Ni       5.12496779       4.42913297       0.11372773        1       1.00000000       0.14686055      -0.09310322      -0.41866092
Pt       7.77310194       4.42850418       0.04777565        0       0.00000000       0.07037251       0.01867211      -0.07374507
Ni      10.30118117       4.40630677       0.01691784        0       1.00000000       0.01724459      -0.05894641       0.22164398
Ni       3.80673648       6.65407983       0.03723768        0       1.00000000      -0.05193626       0.12604826       0.18305788
Pt       6.38130648       6.68586103       0.05467438        1       0.00000000       0.00976439       0.04750085      -0.10051355
Ni       9.00187878       6.64518277       0.10076620        1       1.00000000      -0.09299295      -0.05118629      -0.25914522
Ni      11.57010996       6.62718470       0.00000000        0       1.00000000       0.04860329       0.00898859       0.21222988
Ni       1.28948224       0.75826146       2.11963595        3       1.00000000       0.01421413       0.07526602       0.06658721
Ni       3.84470459       0.75371734       2.14824333        3       1.00000000       0.05336724       0.03572579       0.15024117
Ni       6.40987474       0.74460793       2.19337572        4       1.00000000      -0.00501257       0.11101834       0.29022452
Pt       8.98677792       0.77450744       2.12240020        3       0.00000000      -0.03521088       0.11691750       0.06585327
Ni       2.54012396       2.93136947       2.15153839        4       1.00000000      -0.02126705      -0.00332988       0.07417746
Ni       5.13532695       2.91224776       2.17888211        4       1.00000000      -0.02403265      -0.12664614       0.15913718
Ni       7.71901236       2.95716896       2.17616889        4       1.00000000       0.04634109       0.06844434       0.15924546
Ni      10.26208238       2.93635420       2.14874904        3       1.00000000      -0.02954783       0.02782765       0.18533816
Pt       3.85315249       5.14166474       2.11053604        3       0.00000000       0.00603162      -0.06977333      -0.05682581
Ni       6.45077066       5.15496172       2.15768206        4       1.00000000       0.09360548       0.01050402       0.12558148
Ni       8.96261247       5.13449142       2.18978850        4       1.00000000      -0.04544976      -0.07845912       0.23134339
Pt      11.51553497       5.09644529       2.14492593        3       0.00000000      -0.05435859      -0.08703522       0.05614524
Ni       5.12341626       7.38121150       2.12671150        3       1.00000000      -0.06470869      -0.01656548       0.04361828
Ni       7.69009970       7.36057680       2.12971158        3       1.00000000       0.03461781      -0.07086597       0.11157440
Pt      10.28596339       7.38453604       2.08956709        3       0.00000000       0.02198698       0.00085856       0.04501186
Ni      12.82501245       7.36758478       2.10134331        3       1.00000000       0.01518051      -0.02488763       0.02870103
Ni      -0.02815064       1.53871771       4.28723676        6       1.00000000      -0.00972202       0.11036157      -0.11010570
Pt       2.57615842       1.56955168       4.21779098        5       0.00000000      -0.00979191       0.04336834      -0.01445723
Ni       5.16123427       1.47905835       4.26694388        6       1.00000000       0.04069152      -0.05078433      -0.22205388
Ni       7.67873764       1.46742614       4.26458532        6       1.00000000       0.01598823      -0.08848969      -0.17807915
Ni       1.24468637       3.73734580       4.30733739        6       1.00000000      -0.05066001      -0.03630717      -0.05570624
Ni       3.81676290       3.69411527       4.29826729        6       1.00000000      -0.02213551       0.04397222      -0.18344638
Pt       6.46446246       3.62356751       4.23277356        5       0.00000000       0.04833140      -0.02109923      -0.10853147
Ni       9.02171565       3.70732286       4.24858605        5       1.00000000       0.13062014       0.01043702      -0.20629592
Ni       2.49503363       5.86566976       4.35057502        7       1.00000000      -0.07561801      -0.07348105      -0.02500273
Pt       5.10720882       5.86265074       4.28705176        6       0.00000000       0.02917142      -0.01971782      -0.03937050
Ni       7.73319193       5.84250741       4.25961511        6       1.00000000       0.10230680      -0.03251857      -0.28212437
Ni      10.28845379       5.83578648       4.30021001        6       1.00000000      -0.01085448      -0.01403993      -0.10521472
Pt       3.74868347       8.10024640       4.24288944        5       0.00000000      -0.06556787      -0.03827702       0.08515118
Pt       6.41229745       8.11566354       4.19956169        5       0.00000000      -0.04624318       0.11688100      -0.10582604
Pt       9.02757005       8.07826001       4.22464814        5       0.00000000       0.01923853       0.00048747      -0.04546112
Ni      11.53959291       8.08768780       4.25861032        6       1.00000000      -0.04214052      -0.03237217      -0.15296478
Pt      -0.02237379      -0.05564886       6.51738018       10       0.00000000       0.02596996       0.22245023       0.29005470
Pt       2.56968706      -0.00595920       6.53059052       10       0.00000000       0.03539925      -0.03333588       0.42513257
Pt       5.14413141       0.03204719       6.46281901       10       0.00000000       0.05907763       0.03977055       0.28991998
Pt       7.66712494      -0.05613381       6.47882938       10       0.00000000      -0.09011918       0.09693879       0.28397708
Pt       1.29776620       2.32913996       6.47851348       10       0.00000000      -0.08833435      -0.07106924       0.04886987
Ni       3.85670966       2.24341356       6.35762225        9       1.00000000       0.04079132      -0.00355456       0.11769020
Ni       6.39737342       2.22059593       6.35580490        9       1.00000000      -0.03308694      -0.09419211       0.22044582
Pt       8.93180836       2.29215449       6.40238989        9       0.00000000       0.02807641      -0.02765040       0.00452230
Ni       2.54034252       4.47995783       6.41651825        9       1.00000000       0.05318253       0.01989289      -0.24660784
Pt       5.09076987       4.39402073       6.49321318       10       0.00000000      -0.02903336      -0.08564236       0.28126846
Ni       7.67392540       4.42154388       6.34667111        8       1.00000000      -0.06215605       0.05883581       0.13012422
Ni      10.29421735       4.44248449       6.39289517        9       1.00000000       0.03623846      -0.03091117      -0.24901416
Ni       3.79371083       6.58612928       6.44789574        9       1.00000000      -0.05215825      -0.05346055      -0.12631927
Ni       6.40368982       6.59021654       6.36864511        9       1.00000000       0.11249882      -0.06235812       0.20608651
Pt       8.99733734       6.51138186       6.44690575        9       0.00000000      -0.05225001       0.01756028       0.10183139
Ni      11.56896392       6.55927595       6.39678838        9       1.00000000       0.00175583       0.02826816      -0.27913327
