64
Lattice="10.261176304635377 -0.0024421378477308946 0.02887134080527007 5.1284731989020065 8.82658129628444 -0.011817738937548686 0.0 0.0 21.550472337114115" Properties=species:S:1:pos:R:3:tags:I:1:initial_magmoms:R:1:forces:R:3 unique_id=abd9b1f675fe4c928ab703ffa87ccb1c energy=-373.42652792387355 stress="0.005590514897376409 -7.656120485891214e-05 0.00021171560684418595 -7.656120485891214e-05 0.005408571105778572 -7.790339029672654e-05 0.00021171560684418595 -7.790339029672654e-05 -0.0012748118395026296" pbc="T T T"
Ni       0.01530211      -0.00671651       0.13991799        1       1.00000000       0.08773015       0.02900848      -0.09460601
Ni       2.53511993       0.01262323       0.17019422        2       1.00000000      -0.07373305       0.08365145      -0.04788130
Pt       5.12245643      -0.03839918       0.10698030        1       0.00000000      -0.06077624       0.23612044      -1.04054605
Ni       7.72382936      -0.06183282       0.16990074        2       1.00000000      -0.05872475      -0.08650328      -0.22927618
Ni       1.29115057       2.21273230       0.06716843        1       1.00000000       0.01481082       0.04071538       0.38350036
Pt       3.76452654       2.26357650       0.14443219        1       0.00000000       0.02653990      -0.02491957      -0.31414550
Pt       6.41092593       2.21166065       0.08050231        1       0.00000000       0.01748657      -0.06079888      -0.14303704
Pt       9.07300714       2.20413235       0.10174196        1       0.00000000      -0.01933632       0.13917117      -0.51523827
Ni       2.56374743       4.45067438       0.01685260        0       1.00000000       0.05950151       0.04111337       0.27884683
Ni       5.08278213       4.45036471       0.06871500        1       1.00000000      -0.10094681       0.11650712       0.29511939
Pt       7.70918072       4.45858493       0.00000000        0       0.00000000      -0.04350909      -0.00177224      -0.25311937
Ni      10.32401235       4.43631082       0.03625261        0       1.00000000       0.10868757      -0.02723167       0.24311296
Ni       3.81047147       6.60847005       0.05847601        1       1.00000000      -0.01651766      -0.03535109       0.40011185
Pt       6.36525705       6.67294603       0.13653961        1       0.00000000      -0.04946105       0.04654173      -0.37240132
Ni       8.99910150       6.61200892       0.03688208        0       1.00000000      -0.06720582       0.01868197       0.08442739
Ni      11.58197236       6.58268858       0.04100638        0       1.00000000       0.09624559       0.06346361       0.22693926
Ni       1.31984641       0.73940791       2.18984037        4       1.00000000       0.05334935       0.04730625       0.22637702
Ni       3.81195123       0.77040527       2.22007144        4       1.00000000      -0.03474195       0.11233696       0.27827056
Ni       6.41990556       0.77129213       2.22588463        4       1.00000000      -0.06783111       0.14191020       0.28720514
Pt       9.00587526       0.71790849       2.23704290        4       0.00000000       0.06952574       0.09458029       0.03957529
Ni       2.56398908       2.90863257       2.24249878        4       1.00000000       0.04991225      -0.11791694       0.28872386
Ni       5.11277334       2.95708124       2.22225406        4       1.00000000      -0.10242102       0.01776865       0.14213431
Ni       7.67463246       2.92039462       2.23174952        4       1.00000000      -0.04049286      -0.04855074       0.19118104
Ni      10.31902487       2.90888322       2.24072308        4       1.00000000       0.14834005      -0.11589493       0.26367339
Ni       3.89534719       5.13576933       2.17019898        4       1.00000000       0.10139431      -0.09060981       0.08827566
Ni       6.36111667       5.14121284       2.20527318        4       1.00000000      -0.06033279      -0.04438476       0.07155553
Pt       8.94252564       5.09698979       2.25294295        5       0.00000000      -0.11949938      -0.20736471      -0.06285648
Pt      11.63879100       5.07957104       2.19866000        4       0.00000000       0.15452866      -0.15957976       0.08829779
Ni       5.13888562       7.31944655       2.19168696        4       1.00000000       0.04822402      -0.11553125       0.17116439
Ni       7.64908484       7.37939611       2.18677174        4       1.00000000      -0.12328385       0.01385641       0.16439295
Pt      10.26826630       7.32501351       2.17554050        4       0.00000000       0.02728476      -0.03925644      -0.23765019
Ni      12.87484983       7.31376463       2.14048880        3       1.00000000       0.13217073      -0.13319332       0.02372298
Ni       0.07015970       1.50362014       4.28668758        6       1.00000000       0.17336133       0.02247217      -0.13039943
Ni       2.53655257       1.50668756       4.27051081        6       1.00000000      -0.06126660       0.05522180      -0.21642692
Ni       5.12828934       1.48987338       4.27916536        6       1.00000000      -0.11143610      -0.01612932      -0.39146376
Ni       7.70262289       1.48658364       4.31638279        6       1.00000000      -0.02273174      -0.02613242      -0.23599498
Ni       1.29934539       3.65515452       4.34333971        6       1.00000000       0.04837638      -0.04488715      -0.01680565
Ni       3.82486529       3.70279753       4.27213971        6       1.00000000      -0.09200533       0.02831796      -0.27282530
Pt       6.40714000       3.67709112       4.30506154        6       0.00000000      -0.07162680       0.00984189      -0.05841407
Ni       9.02483325       3.68591805       4.31620487        6       1.00000000       0.10855630      -0.09097321      -0.14642847
Ni       2.58882111       5.80089187       4.34770575        6       1.00000000       0.01685348      -0.17688946      -0.01993722
Ni       5.11917422       5.83191802       4.27890045        6       1.00000000      -0.02201287      -0.17477059      -0.28395779
Ni       7.70954233       5.85054730       4.31497049        6       1.00000000      -0.09005548       0.00380447      -0.16885014
Ni      10.27742217       5.80698844       4.39623907        7       1.00000000       0.05927925      -0.04357700       0.04036134
Pt       3.92389019       8.00559694       4.27798682        6       0.00000000       0.10295150      -0.09077380       0.13604279
Ni       6.41907635       8.08164247       4.25189866        6       1.00000000      -0.04970022       0.04557108      -0.31339687
Pt       8.89881652       8.07007719       4.26500358        6       0.00000000      -0.08586744       0.07650067       0.04622802
Pt      11.58849042       8.04517196       4.27161404        6       0.00000000       0.03256937      -0.07792084       0.00725240
Pt       0.02327544      -0.00375503       6.49667514        9       0.00000000       0.06070566       0.08843538       0.30369928
Pt       2.56532263      -0.00133638       6.51192115        9       0.00000000      -0.03521872       0.06126651       0.26504364
Pt       5.14241227      -0.04297531       6.42697270        8       0.00000000      -0.00988550       0.21073516       1.07608485
Pt       7.70598813      -0.05869318       6.55047234       10       0.00000000      -0.04067075       0.15905546       0.39399747
Ni       1.29543484       2.26522818       6.43004183        8       1.00000000      -0.01169901       0.20128057      -0.31388543
Pt       3.84528356       2.30319219       6.36491105        8       0.00000000      -0.03525548      -0.02951416       0.28936713
Ni       6.42742685       2.23005212       6.39393639        8       1.00000000      -0.00133148      -0.01887760       0.11762642
Pt       9.00662902       2.29369014       6.36565506        8       0.00000000       0.00818963      -0.00832880       0.52936338
Ni       2.54641935       4.43970080       6.43025491        8       1.00000000      -0.05340355      -0.00877730      -0.42675174
Ni       5.12182282       4.40413265       6.45499592        9       1.00000000      -0.06744955       0.05056249      -0.29916251
Ni       7.72908382       4.40495618       6.36797059        8       1.00000000       0.08021571       0.03975081       0.11009167
Ni      10.30921201       4.43769355       6.44726519        8       1.00000000       0.04673162      -0.02602349      -0.39549964
Ni       3.82745343       6.51914068       6.45277950        9       1.00000000      -0.04026746      -0.16325072      -0.28874555
Pt       6.41947221       6.50382081       6.36749864        8       0.00000000       0.01563289       0.08807562       0.31471747
Ni       9.02105513       6.52262378       6.45466102        9       1.00000000       0.00000687      -0.09808575      -0.27103384
Ni      11.55619976       6.51859268       6.47322577        9       1.00000000      -0.00846414       0.02014546      -0.30574676
