64
Lattice="10.260680310752269 -0.0002180289449563594 0.0178238710354292 5.1301513367710365 8.789741520125135 -0.052424381582094864 0.014553129759324678 -0.0578284343390451 8.758036829797506" Properties=species:S:1:pos:R:3:tags:I:1:initial_magmoms:R:1:forces:R:3 unique_id=e25c0e6843844188b6ddc7df0fd603e5 stress="-7.937735672394752e-05 2.9250557646211536e-06 -8.926782103324001e-06 2.9250557646211536e-06 -5.582651163251601e-05 3.7496987147240924e-05 -8.926782103324001e-06 3.7496987147240924e-05 -3.037411136758844e-05" energy=-393.9860717133688 pbc="T T T"
Ni       0.03913613      -0.04435890       0.18167167        4       1.00000000       0.13657388      -0.08063565       0.33078011
Ni       2.50994951      -0.03229903       0.20489675        4       1.00000000      -0.07977720      -0.01736694       0.37578119
Pt       5.12284776      -0.04824188       0.14160990        4       0.00000000      -0.04521155      -0.15889759       0.36102878
Ni       7.72066938      -0.05625389       0.19882958        4       1.00000000       0.02003578      -0.01456827       0.37351638
Ni       1.27822469       2.19882949       0.09608480        4       1.00000000       0.03287302      -0.01426615       0.25939429
Pt       3.74956788       2.21179774       0.16854258        4       0.00000000      -0.09879016       0.06254699       0.16639185
Pt       6.44699813       2.21584113       0.09977308        4       0.00000000       0.06629530       0.08816716      -0.02453947
Pt       9.06080379       2.23586854       0.12541501        4       0.00000000       0.08834235       0.00927761       0.18106129
Ni       2.53378323       4.42321997       0.03231916        4       1.00000000       0.01156755       0.05267340      -0.00970156
Pt       5.12316464       4.50762561       0.07028330        4       0.00000000      -0.03967321       0.17672924      -0.10175468
Ni       7.70685070       4.44315696       0.05194773        4       1.00000000      -0.02933688       0.10305679       0.06727217
Ni      10.29452914       4.41864612       0.04634576        4       1.00000000       0.12970072       0.11540627       0.04453520
Ni       3.82706057       6.62733028       0.06043395        4       1.00000000      -0.02124775       0.13336537       0.14608288
Ni       6.42980282       6.63176483       0.07514446        4       1.00000000       0.05401631       0.09436346       0.13879716
Ni       8.94283898       6.55647839       0.11837684        4       1.00000000      -0.13401398      -0.05586941       0.17169131
Ni      11.58283707       6.55204724       0.04412279        4       1.00000000       0.10585635      -0.07311671       0.04406202
Ni       1.31506459       0.72225568       2.21513627        3       1.00000000       0.03104460       0.01930693       0.18482158
Ni       3.80438672       0.75268590       2.24849179        3       1.00000000      -0.03797135       0.06128152       0.03146582
Ni       6.42000540       0.76098060       2.25005345        3       1.00000000      -0.07714082       0.05787370       0.08047798
Pt       9.00740853       0.70929997       2.24636486        3       0.00000000       0.08443759       0.14365349      -0.02016762
Ni       2.55926496       2.88612660       2.26354730        3       1.00000000       0.04865913      -0.11480167       0.20837851
Ni       5.11425181       2.92549623       2.24575021        3       1.00000000      -0.15378508       0.04989103      -0.00931763
Ni       7.67310083       2.91094521       2.24257314        3       1.00000000      -0.01450880      -0.12502960       0.02609950
Ni      10.31511749       2.89216047       2.25601838        3       1.00000000       0.11564159      -0.10698885       0.18858564
Ni       3.87797554       5.11857226       2.21444097        3       1.00000000       0.10056610      -0.00208266       0.17249570
Ni       6.38909475       5.14115837       2.19585192        3       1.00000000      -0.08105466       0.06515559       0.04864574
Pt       8.91073925       5.05678661       2.19945057        3       0.00000000      -0.07611019      -0.17283228       0.04814511
Pt      11.62404534       5.04963244       2.20407497        3       0.00000000       0.11714784      -0.15461701       0.09217308
Ni       5.17181344       7.26808006       2.13551940        3       1.00000000       0.06443409      -0.13708884      -0.02933585
Ni       7.61891366       7.32370601       2.13979380        3       1.00000000      -0.15220187      -0.06290316       0.03721173
Pt      10.26233037       7.28115500       2.16921064        3       0.00000000      -0.00539643       0.03352077      -0.24034621
Ni      12.87257892       7.27880300       2.12850323        3       1.00000000       0.12469747      -0.16805573      -0.02896406
Ni       0.06656726       1.47534751       4.31551828        2       1.00000000       0.14179361       0.01683094      -0.04553632
Ni       2.52598566       1.48690453       4.29032938        2       1.00000000      -0.06336966       0.09723248      -0.07969084
Ni       5.12701796       1.47552003       4.28923311        2       1.00000000      -0.12587788       0.04546689      -0.20414178
Ni       7.69991051       1.46496352       4.33152717        2       1.00000000       0.03592950       0.00192850      -0.05662777
Ni       1.29663831       3.62038722       4.35709534        2       1.00000000       0.03544564      -0.04257720       0.00020784
Ni       3.82315498       3.67452979       4.28225716        2       1.00000000      -0.05636790       0.06393948      -0.22977805
Pt       6.41280776       3.65175214       4.31676382        2       0.00000000      -0.02191058      -0.02777014      -0.11197576
Ni       9.01482769       3.65881137       4.31704466        2       1.00000000       0.05978125      -0.01138291      -0.09911313
Ni       2.59389893       5.75998582       4.35095230        2       1.00000000       0.06294291      -0.13795549      -0.03055949
Ni       5.14332756       5.81061212       4.32316876        2       1.00000000       0.04586092      -0.08941665      -0.15022873
Ni       7.66086379       5.82014153       4.32736778        2       1.00000000      -0.12703253       0.04776325      -0.07013621
Ni      10.28733370       5.75957501       4.36041111        2       1.00000000       0.06613870      -0.10183711      -0.00217370
Pt       3.92671176       7.95446450       4.25914037        2       0.00000000       0.07162551      -0.14277168       0.13499223
Ni       6.41284368       8.00861811       4.25542046        2       1.00000000      -0.05379528      -0.02778730      -0.14967594
Pt       8.88657807       8.03916078       4.23408036        2       0.00000000      -0.07820744       0.01273787       0.07034808
Pt      11.58733003       7.99989139       4.25672934        2       0.00000000       0.04251778      -0.03315914       0.08088864
Pt       0.02314624      -0.07842704       6.53222218        1       0.00000000       0.07941268      -0.04321039       0.16241067
Pt       2.54334298      -0.03203450       6.53321457        1       0.00000000      -0.11460564       0.05958244       0.21650630
Pt       5.14370481      -0.02105461       6.44345698        1       0.00000000       0.05584428       0.08521262      -0.46250631
Pt       7.71385609      -0.07826437       6.56714386        1       0.00000000      -0.11900442      -0.05886939       0.16819881
Ni       1.29016521       2.22176496       6.44643910        1       1.00000000       0.01099178       0.12895087      -0.19941430
Pt       3.83674403       2.28432055       6.37278905        1       0.00000000      -0.03232475       0.28296099      -0.26578415
Ni       6.42482986       2.20419145       6.40149363        1       1.00000000      -0.03337911       0.06989473      -0.27157702
Pt       9.00344543       2.25824352       6.37250210        1       0.00000000      -0.00734527       0.12974318      -0.33853125
Ni       2.54460876       4.40047527       6.43012028        1       1.00000000      -0.06594214       0.11838679      -0.24837525
Ni       5.14357218       4.40929113       6.38486512        1       1.00000000      -0.05988668       0.15077988      -0.25438898
Ni       7.65830389       4.35717857       6.46189557        1       1.00000000      -0.21658680      -0.00903948      -0.18427691
Ni      10.33472761       4.35506932       6.44950957        1       1.00000000       0.23040501       0.00001580      -0.24386847
Ni       3.85640549       6.46983458       6.44664689        1       1.00000000      -0.01233172      -0.17566259      -0.12570428
Ni       6.39566091       6.48938993       6.43896563        1       1.00000000      -0.05682750      -0.05269853      -0.19477969
Pt       8.98497596       6.42377772       6.47493245        1       0.00000000      -0.01007612      -0.10483969       0.05969346
Ni      11.58139692       6.47592860       6.45895951        1       1.00000000       0.03051210      -0.05959785      -0.18916963
