64
Lattice="10.335836772601661 -0.013672844692185113 0.0077245799750362875 5.156077355455402 8.900379679699173 -0.017289826358237236 0.0 0.0 21.56182427022377" Properties=species:S:1:pos:R:3:tags:I:1:initial_magmoms:R:1:forces:R:3 unique_id=12331279477c4b05953127eb66d666c4 stress="0.005699596746766119 0.00017025270173156556 8.194965907238771e-05 0.00017025270173156556 0.005807396076890239 -0.00015595774866181535 8.194965907238771e-05 -0.00015595774866181535 -0.0017334032132808042" energy=-375.6047026576545 pbc="T T T"
Ni       0.00147476       0.02008221       0.12315647        1       1.00000000       0.09959217      -0.04173265      -0.16079817
Ni       2.58050321      -0.00005125       0.15749743        2       1.00000000      -0.02582171       0.02478844      -0.11263951
Ni       5.16536069      -0.01700133       0.11498817        1       1.00000000      -0.00938977       0.21834446      -0.35836213
Ni       7.75783593      -0.05681132       0.13628378        1       1.00000000      -0.10230022      -0.12239352      -0.19106485
Ni       1.25791370       2.23033877       0.05084476        1       1.00000000      -0.04752587       0.00784989       0.45025925
Pt       3.81056625       2.23296609       0.13996145        1       0.00000000       0.00545815       0.02392724      -0.50830164
Pt       6.48116644       2.17140253       0.14254811        1       0.00000000       0.00892876      -0.04734382      -0.43098470
Ni       9.08442923       2.21602901       0.09931274        1       1.00000000       0.05688403       0.11221518      -0.02867340
Ni       2.57660120       4.47035868       0.00884131        0       1.00000000       0.10143738      -0.02361499       0.24258614
Ni       5.13160633       4.46450379       0.12348863        1       1.00000000      -0.05013515       0.03291056       0.09537277
Pt       7.82159452       4.45404996       0.04935961        0       0.00000000       0.00684818      -0.00249220       0.03601542
Ni      10.35865909       4.43053731       0.01621442        0       1.00000000       0.04005135      -0.07422833       0.26086556
Ni       3.83189296       6.67109083       0.04374130        0       1.00000000      -0.02250097      -0.01717253       0.47548636
Pt       6.41984583       6.71265565       0.12430725        1       0.00000000      -0.06281225       0.02971321      -0.50649009
Ni       9.05690512       6.67989690       0.01166123        0       1.00000000      -0.11949671      -0.02704956       0.12819712
Ni      11.64249609       6.66196291       0.00000000        0       1.00000000       0.12804582       0.02029560       0.18820631
Ni       1.30040474       0.75241565       2.10428840        4       1.00000000      -0.01130079       0.09953005      -0.06996120
Ni       3.87307016       0.74329115       2.15206633        5       1.00000000       0.09121709       0.00528498       0.12899192
Ni       6.45403882       0.74607842       2.19190806        5       1.00000000      -0.02742836       0.16041478       0.26658871
Pt       9.05140882       0.75999484       2.13696553        4       0.00000000      -0.00325582       0.07743570       0.14248249
Ni       2.57591807       2.96614030       2.15819097        5       1.00000000      -0.01102924       0.09861323       0.04424889
Ni       5.14617044       2.97706019       2.19204727        5       1.00000000      -0.13842445       0.05042944       0.17449380
Ni       7.77402569       2.97179479       2.19131203        5       1.00000000       0.11530362       0.07572538       0.19885639
Ni      10.33124493       2.94530601       2.13884362        4       1.00000000       0.05772791       0.03673429       0.04835229
Ni       3.90373840       5.18566528       2.15082163        5       1.00000000       0.10011244      -0.04395815       0.08268984
Ni       6.43888920       5.18619077       2.16761560        5       1.00000000      -0.05044297       0.03735402       0.12118431
Ni       9.01594897       5.15870865       2.17468069        5       1.00000000      -0.05731594      -0.11145976       0.18486239
Pt      11.66868232       5.14227544       2.08296465        4       0.00000000       0.07981963      -0.05569612       0.00365796
Ni       5.12863078       7.37852869       2.13450344        4       1.00000000      -0.19982685      -0.17388662      -0.00081799
Ni       7.73937660       7.40131713       2.13128191        4       1.00000000       0.05731834      -0.09122373       0.01147470
Pt      10.30982622       7.41373589       2.04425697        3       0.00000000       0.03363399      -0.12564138      -0.12028107
Ni      12.94326371       7.37808357       2.09998870        4       1.00000000       0.11021767      -0.09302450      -0.03704779
Ni      -0.02353841       1.50125671       4.29077853        7       1.00000000      -0.06795046      -0.04115969      -0.20531510
Pt       2.58345257       1.50493436       4.19415155        6       0.00000000      -0.02790766      -0.01328700      -0.08942204
Ni       5.18006830       1.49718862       4.26303825        7       1.00000000       0.00262278       0.08876081      -0.35812748
Ni       7.77850487       1.49354663       4.27835108        7       1.00000000       0.06983714       0.03765706      -0.25916468
Pt       1.28589761       3.69439645       4.34695502        7       0.00000000      -0.00662661      -0.05439376      -0.01280899
Ni       3.88434887       3.74568903       4.25768583        7       1.00000000       0.02640855       0.04871600      -0.33483649
Pt       6.47089880       3.72573117       4.19845000        6       0.00000000      -0.05663667       0.00565741       0.02051744
Ni       9.02258404       3.67458173       4.28212240        7       1.00000000      -0.05984996      -0.12645083      -0.33220272
Ni       2.61635873       5.89143915       4.32721272        7       1.00000000       0.04593443      -0.10980231      -0.10415917
Ni       5.12947737       5.88651281       4.25131239        7       1.00000000      -0.07737133      -0.09816352      -0.37515741
Ni       7.74954621       5.87430262       4.27289031        7       1.00000000      -0.03137441      -0.03629472      -0.35918357
Pt      10.29212720       5.86371615       4.36780170        8       0.00000000       0.02618532       0.01854190      -0.08419277
Pt       3.87075078       8.09220174       4.24913773        6       0.00000000       0.00931332      -0.07480208       0.04402291
Pt       6.42923781       8.10488276       4.16406004        6       0.00000000      -0.06947543      -0.03094450      -0.24260881
Pt       9.01728888       8.13077150       4.25233175        7       0.00000000      -0.06557876       0.02485893      -0.02834075
Pt      11.64451825       8.15721904       4.23899851        6       0.00000000       0.03379879       0.03227543      -0.05445468
Pt       0.01178214       0.00073125       6.52748363       10       0.00000000       0.05141116       0.08915617       0.21660520
Pt       2.58066764      -0.01998097       6.56182427       11       0.00000000       0.02315191      -0.01521829       0.38073718
Pt       5.17095616      -0.10716507       6.54197179       10       0.00000000       0.00576764       0.15583652       0.47326691
Pt       7.76585838      -0.10141950       6.55400756       11       0.00000000       0.00360156       0.17929567       0.31582336
Ni       1.28457862       2.26429582       6.48016577       10       1.00000000       0.01604806       0.04759477      -0.11568211
Pt       3.81413361       2.26865095       6.41530640        9       0.00000000       0.15942846      -0.01614888       0.53474622
Pt       6.48582674       2.22799778       6.40141446        9       0.00000000      -0.06602932      -0.07625648       0.55367416
Pt       9.11001635       2.30467865       6.45964985       10       0.00000000      -0.06077508      -0.01550651       0.02884630
Ni       2.53248061       4.48421618       6.46386100       10       1.00000000      -0.06309749       0.08018006      -0.20590567
Pt       5.09187123       4.48800750       6.47019643       10       0.00000000      -0.04343474       0.00202797       0.02596731
Ni       7.79984110       4.45895167       6.38344146        9       1.00000000       0.07820678       0.08363242      -0.03622193
Ni      10.35295869       4.45692791       6.49358843       10       1.00000000       0.02022641       0.04875370      -0.11143031
Ni       3.82468785       6.62286721       6.45494186       10       1.00000000      -0.06089965      -0.02647435      -0.24642529
Pt       6.49514995       6.60505553       6.39583562        9       0.00000000       0.02478581      -0.09175106       0.41575105
Ni       9.06058864       6.58473922       6.47904439       10       1.00000000      -0.05440128      -0.10218934      -0.04117863
Ni      11.63520988       6.57834287       6.48200337       10       1.00000000       0.06109126      -0.07475009      -0.17258952
