64
Lattice="10.752850499256974 -0.0028342160727391715 -0.0015922091166794934 5.373970746509684 9.296170527665259 -0.01696778850936327 0.0 0.0 21.975951536632294" Properties=species:S:1:pos:R:3:tags:I:1:initial_magmoms:R:1:forces:R:3 unique_id=b678af1d45c94a0283bce8ccd78ef410 energy=-402.6401788161105 stress="0.0033159900439390256 -5.654256479006574e-06 2.8208506499510588e-05 -5.654256479006574e-06 0.003336186166468051 -6.425659831630944e-06 2.8208506499510588e-05 -6.425659831630944e-06 -0.0015760538568788136" pbc="T T T"
Pt       0.01333521       0.02673157       0.05057175        1       0.00000000      -0.09405929      -0.05113508      -0.35064862
Pt       2.67509446       0.02485052       0.06472979        1       0.00000000       0.08831386      -0.08779771      -0.31878610
Pt       5.38480643       0.03146460       0.05454147        1       0.00000000      -0.07697083       0.09949090      -0.40170430
Pt       8.05607977       0.02137417       0.05681356        1       0.00000000       0.09777259      -0.01993630      -0.33334489
Ni       1.34578471       2.32825016       0.00000000        0       1.00000000       0.03299728       0.00667254       0.56632869
Pt       4.04585124       2.35505506       0.05377850        1       0.00000000       0.05214922       0.00705181      -0.21873712
Ni       6.71330164       2.33435598       0.04726400        0       1.00000000      -0.02252318       0.00328449       0.35421044
Pt       9.41225745       2.32661798       0.04434410        0       0.00000000      -0.04299031       0.00781602      -0.31699219
Pt       2.70244399       4.62590948       0.08444018        1       0.00000000       0.06233518       0.12209962      -0.01194889
Ni       5.37826541       4.63557668       0.05202433        1       1.00000000      -0.07326399      -0.02360620       0.39961146
Pt       8.00884041       4.61145537       0.05166036        1       0.00000000      -0.04592501      -0.09215893      -0.30795387
Pt      10.77948078       4.61497633       0.06112211        1       0.00000000       0.09412446       0.05002994      -0.12809662
Pt       4.04842309       6.92661643       0.06895209        1       0.00000000       0.05728742      -0.14959642      -0.19536327
Pt       6.71191451       6.94959061       0.06046172        1       0.00000000       0.13742886       0.10391981      -0.33643453
Pt       9.39225289       6.97294155       0.06207893        1       0.00000000      -0.19738818       0.04326432      -0.33173886
Pt      12.09767230       6.95361244       0.06084325        1       0.00000000       0.01174442      -0.17218768      -0.30600147
Pt       1.35987356       0.77064035       2.31070518        2       0.00000000       0.03193543       0.19929385       0.31565534
Pt       4.01450299       0.75514160       2.32315674        2       0.00000000      -0.03648078       0.07559628       0.50935431
Pt       6.71188913       0.77946669       2.29968477        2       0.00000000      -0.06411727       0.06725728       0.35967808
Pt       9.41545064       0.76370196       2.32319194        2       0.00000000       0.04884886      -0.04837405       0.50715911
Pt       2.67052293       3.15833842       2.32431611        2       0.00000000      -0.07520030       0.04888115       0.36819317
Pt       5.35692313       3.13991025       2.25589690        2       0.00000000      -0.05864240       0.16847351       0.14588269
Pt       8.05524979       3.09829446       2.28927518        2       0.00000000      -0.00878136       0.00325099       0.36417047
Pt      10.79720820       3.12439527       2.32454096        2       0.00000000       0.15537162       0.02914277       0.37299816
Ni       4.01895739       5.41294160       2.28613002        2       1.00000000       0.00453121      -0.05482838       0.37938772
Pt       6.68892143       5.43330355       2.28503153        2       0.00000000      -0.12788974      -0.01189356       0.28729107
Pt       9.41761635       5.43547585       2.31165459        2       0.00000000      -0.05328123      -0.03964845       0.40718820
Ni      12.11101834       5.40997931       2.30337115        2       1.00000000       0.03654818      -0.02327170       0.43812138
Pt       5.38879446       7.71733988       2.31111945        2       0.00000000       0.01968797       0.04012902       0.40916799
Ni       8.05990888       7.73900548       2.29037559        2       1.00000000      -0.02340776      -0.02545549       0.49510312
Pt      10.74291133       7.71293968       2.31809711        2       0.00000000       0.04155780      -0.03627844       0.40848148
Pt      13.43817805       7.66317146       2.31410212        2       0.00000000       0.00674793      -0.19102820       0.41128747
Pt       0.03655799       1.58581090       4.63490025        3       0.00000000       0.12037907       0.15168000      -0.30326810
Pt       2.65498081       1.59026324       4.63354339        3       0.00000000      -0.06970166       0.21528020      -0.30258069
Pt       5.36453956       1.54722158       4.60977782        3       0.00000000      -0.06488741       0.07878400      -0.48029640
Pt       8.06789227       1.54759344       4.61523896        3       0.00000000       0.01369182       0.07097613      -0.43984022
Ni       1.34462037       3.86489186       4.62482590        3       1.00000000       0.02457937      -0.04551059      -0.37533628
Pt       3.99626810       3.87781336       4.58630982        3       0.00000000       0.05900064      -0.01175877      -0.44169120
Pt       6.71197806       3.86596279       4.59867180        3       0.00000000      -0.05031144      -0.01132656      -0.43444669
Pt       9.44400283       3.86801486       4.61018155        3       0.00000000      -0.02833250       0.01151986      -0.46087153
Pt       2.66371232       6.13931770       4.55299032        3       0.00000000      -0.04729773      -0.15721003      -0.56050145
Pt       5.35515345       6.17357596       4.57324620        3       0.00000000      -0.07714284      -0.09190440      -0.45482684
Pt       8.06845048       6.19642139       4.57294632        3       0.00000000       0.00239091      -0.03243491      -0.53289135
Pt      10.78468350       6.14496988       4.57458934        3       0.00000000       0.10284196      -0.10816737      -0.49194614
Pt       4.03327140       8.51171880       4.60058546        3       0.00000000       0.02547166       0.00718676      -0.47514473
Pt       6.72627723       8.51210329       4.57698511        3       0.00000000      -0.00135845       0.01848987      -0.52361649
Pt       9.39450934       8.50739781       4.57299057        3       0.00000000      -0.01649114       0.01640063      -0.51954667
Pt      12.09332608       8.49796223       4.59325172        3       0.00000000       0.00086432      -0.05340995      -0.47263021
Pt       0.01978356       0.02671752       6.89810285        4       0.00000000      -0.01062649      -0.04954907       0.32066699
Pt       2.66704049       0.02406521       6.89656952        4       0.00000000       0.04099819      -0.03082074       0.21923600
Pt       5.37225827      -0.00547943       6.90358478        4       0.00000000      -0.08494886      -0.00214977       0.42816148
Pt       8.06731018      -0.00669015       6.90193695        4       0.00000000       0.06964344      -0.01261409       0.45047153
Ni       1.34200664       2.31536660       6.93887820        4       1.00000000       0.01702665       0.04522389      -0.44478209
Pt       3.99668155       2.31689524       6.90614868        4       0.00000000       0.01426270       0.01054167       0.29155990
Pt       6.71752873       2.31523061       6.97595154        5       0.00000000       0.00608324      -0.01738188       0.07261800
Pt       9.44485514       2.31196048       6.89812695        4       0.00000000      -0.04367122       0.01952692       0.35509937
Pt       2.65979113       4.59788303       6.87831553        4       0.00000000      -0.09177475      -0.01201088       0.05741682
Pt       5.36801595       4.63066762       6.96814109        5       0.00000000      -0.12557964       0.00075347      -0.03890111
Pt       8.06541192       4.62794225       6.89805154        4       0.00000000       0.11611179       0.00510614       0.33214130
Pt      10.78457152       4.59390705       6.87296093        4       0.00000000       0.11519405      -0.01510144       0.18195048
Pt       4.03076363       6.95357955       6.89050729        4       0.00000000      -0.05573461      -0.02845646       0.24153648
Pt       6.71757178       6.96489435       6.89375806        4       0.00000000       0.00929272       0.08827478       0.29503179
Pt       9.40605462       6.95874878       6.88439790        4       0.00000000       0.02975935      -0.01239238       0.24693687
Pt      12.09479232       6.94867759       6.88690181        4       0.00000000       0.02180620      -0.09600276       0.31877158
