64
Lattice="10.177829824098959 0.02773931395633861 -0.024180679161513174 5.112937862619217 8.78712889636847 -0.06465546147645171 -0.019743441859885736 -0.0495588721951248 8.704018074650413" Properties=species:S:1:pos:R:3:tags:I:1:initial_magmoms:R:1:forces:R:3 unique_id=f7d79335aae24c188af96ca1767baada stress="-0.0066163290225536645 -5.107154532017144e-06 2.0950523906691915e-05 -5.107154532017144e-06 -0.00656766853760276 -8.47266988083417e-06 2.0950523906691915e-05 -8.47266988083417e-06 -0.005640416264300757" energy=-391.7695166990362 pbc="T T T"
Ni       0.03422170      -0.05203728       0.20444095        4       1.00000000       0.05580817      -0.07613035       0.16050828
Ni       2.49912281       0.00607917       0.15415844        4       1.00000000      -0.03373215       0.05476972      -0.04017644
Pt       5.11147764      -0.05687196       0.19703524        4       0.00000000      -0.05022962      -0.07576803      -0.07718356
Ni       7.63890097      -0.03584267       0.16406175        4       1.00000000      -0.01103383      -0.11335343       0.05644949
Ni       1.27126905       2.21620620       0.11490222        4       1.00000000      -0.03062127       0.08170754       0.11458953
Pt       3.78678380       2.26593214       0.18005587        4       0.00000000      -0.04035885       0.02260413      -0.08850480
Ni       6.36721433       2.25071448       0.10141602        4       1.00000000      -0.02972554       0.04290378       0.12013626
Pt       8.91056078       2.28211240       0.11096959        4       0.00000000      -0.02621557       0.08455242      -0.21079357
Ni       2.52934713       4.43444906       0.08375546        4       1.00000000      -0.01870929       0.01899150       0.08273772
Ni       5.11721064       4.44153241       0.07697817        4       1.00000000      -0.03628732       0.03055664       0.02815168
Ni       7.61002994       4.44359487       0.07767963        4       1.00000000      -0.05324049       0.05770466       0.10208706
Ni      10.22213712       4.44876158       0.07014583        4       1.00000000       0.04338261       0.01954117       0.02042910
Ni       3.83170725       6.56052901       0.07076421        4       1.00000000      -0.02110538      -0.05886614       0.04732826
Ni       6.34439311       6.56634785       0.03447535        4       1.00000000      -0.07278411      -0.04620112      -0.05965925
Ni       8.93288475       6.53240371       0.13753583        4       1.00000000       0.08026570      -0.12689741       0.15518576
Ni      11.49424483       6.55261591       0.06080297        4       1.00000000       0.00897141      -0.06777387       0.05481042
Ni       1.30147742       0.76763150       2.15789282        3       1.00000000       0.01227287       0.10487064       0.02354607
Ni       3.77570471       0.73916512       2.19417240        3       1.00000000      -0.06912977       0.01049845      -0.01432700
Ni       6.36755233       0.74077676       2.18143198        3       1.00000000       0.01840910       0.00608052       0.01449476
Pt       8.88218499       0.72654759       2.14814663        3       0.00000000       0.03039847      -0.01045455       0.12618445
Ni       2.51249757       2.95742196       2.22609774        3       1.00000000      -0.02393099       0.09210165       0.07081307
Ni       5.10320949       2.97583716       2.14973997        3       1.00000000       0.00652947       0.07847040       0.00212767
Ni       7.61123986       2.97967253       2.16894017        3       1.00000000       0.00707243       0.05468350       0.04354573
Ni      10.22667075       3.01067794       2.15548356        3       1.00000000       0.03922322       0.06013207       0.01625126
Ni       3.82732080       5.10102603       2.11576390        3       1.00000000      -0.01804090      -0.05168902      -0.03118893
Ni       6.33919567       5.10707104       2.09319584        3       1.00000000      -0.01944053       0.01951919       0.01940188
Ni       8.95212184       5.09050843       2.11712865        3       1.00000000       0.00419571      -0.04836229       0.03637261
Ni      11.44664960       5.12559977       2.10203582        3       1.00000000      -0.02101197      -0.03526059       0.00519675
Ni       5.09624090       7.24275335       2.09935372        3       1.00000000      -0.05890452      -0.12050481       0.04175352
Pt       7.63677805       7.33089257       2.08929116        3       0.00000000      -0.06150988      -0.01106770      -0.00194885
Ni      10.22915451       7.26915316       2.17923764        3       1.00000000      -0.00358687      -0.10413877       0.08364565
Ni      12.70273683       7.27087260       2.07030433        3       1.00000000       0.00756760      -0.08734639       0.00397111
Pt       0.08000280       1.49907547       4.26572452        2       0.00000000       0.04969798      -0.04988733      -0.00123159
Ni       2.54847152       1.46592714       4.24345744        2       1.00000000       0.03410443       0.01541579      -0.10521298
Pt       5.06628268       1.42019798       4.18432212        2       0.00000000       0.02811439      -0.00581551      -0.10323837
Ni       7.61508534       1.45651261       4.27213516        2       1.00000000      -0.00250517      -0.05804058      -0.06781158
Ni       1.27718586       3.64560590       4.29409559        2       1.00000000       0.02206363      -0.00365130      -0.06321416
Ni       3.79126376       3.65992913       4.22871015        2       1.00000000       0.02033845      -0.00197101      -0.18436335
Pt       6.35165743       3.65043507       4.27846195        2       0.00000000       0.02144837      -0.02279523      -0.02971200
Ni       8.95251766       3.70770572       4.21772152        2       1.00000000       0.06648571       0.04157969      -0.18243596
Pt       2.51159573       5.76314640       4.25810131        2       0.00000000       0.00467395      -0.01041142      -0.08293158
Ni       5.08832767       5.81721466       4.27152336        2       1.00000000       0.00324309      -0.05644656      -0.14027908
Pt       7.65089971       5.85768910       4.24467621        2       0.00000000       0.01733069       0.01780888       0.02455647
Ni      10.19373152       5.83126543       4.22640361        2       1.00000000      -0.01304197      -0.02346472      -0.07500050
Pt       3.84221784       7.96912025       4.22052132        2       0.00000000       0.03790635       0.01333555       0.03443836
Ni       6.38975203       8.03372235       4.22170938        2       1.00000000       0.00288620       0.02949926      -0.08752160
Ni       8.92463150       8.02906109       4.20064403        2       1.00000000       0.00782721      -0.04048971      -0.07094572
Ni      11.43673970       8.00186550       4.17072339        2       1.00000000       0.01879235      -0.04696416      -0.10426951
Pt       0.00090261      -0.08985828       6.53255201        1       0.00000000      -0.03981932       0.01809965       0.20756219
Pt       2.51719716      -0.02454436       6.42429777        1       0.00000000       0.09213521       0.02513550      -0.05078317
Pt       5.09389690      -0.03645023       6.36524202        1       0.00000000      -0.05463139      -0.03475655       0.05453374
Pt       7.60949436      -0.05516637       6.47152248        1       0.00000000       0.05708790       0.00871314       0.09424828
Ni       1.26877492       2.23515005       6.43021208        1       1.00000000       0.03902970       0.06155340       0.01038303
Pt       3.79029068       2.31229908       6.35515768        1       0.00000000      -0.01100489       0.08703458       0.03005396
Ni       6.34408916       2.22970862       6.42483862        1       1.00000000      -0.02668901       0.03410221       0.01663426
Pt       8.87994526       2.30597945       6.32106470        1       0.00000000      -0.04925513       0.09808837       0.01799958
Ni       2.51213559       4.40599727       6.42065083        1       1.00000000       0.00132358       0.07091448       0.00528192
Ni       5.09399512       4.43037949       6.41578591        1       1.00000000      -0.03030457       0.09302932      -0.02751756
Ni       7.57005291       4.38857999       6.42587188        1       1.00000000      -0.13298847       0.02665454       0.04908098
Ni      10.25448792       4.37951347       6.37468115        1       1.00000000       0.15218355      -0.00149170      -0.11031376
Ni       3.82801692       6.47013279       6.41966994        1       1.00000000      -0.00000270      -0.05884713      -0.01088021
Ni       6.33224712       6.50083371       6.39360302        1       1.00000000      -0.01305821       0.01554030      -0.11111771
Pt       8.94272776       6.45082384       6.45674025        1       0.00000000       0.05587305      -0.04936472       0.19575587
Ni      11.48547503       6.51195301       6.38752931        1       1.00000000       0.02625714       0.00201949      -0.03768395
