64
Lattice="10.129226583958546 0.011880317194811972 -0.004179522340762079 5.074901948474992 8.722227507569514 -0.05359258372980311 -0.003412565701143275 -0.048557326776019795 8.632804092408216" Properties=species:S:1:pos:R:3:tags:I:1:initial_magmoms:R:1:forces:R:3 unique_id=e34d6a3d96cc4de485094697ea0b8b0c stress="-0.006905777280564546 1.5619039440965533e-05 7.852055513559114e-06 1.5619039440965533e-05 -0.006869769787909714 -5.6271450529684045e-06 7.852055513559114e-06 -5.6271450529684045e-06 -0.005922623308213318" energy=-388.5693132105787 pbc="T T T"
Ni       0.04110340      -0.05317934       0.20140474        4       1.00000000       0.06548443      -0.05832402       0.11801579
Ni       2.48590852      -0.03417274       0.20327576        4       1.00000000      -0.03017033      -0.03102964       0.02199677
Pt       5.08363655      -0.06847206       0.21269189        4       0.00000000      -0.01744102      -0.06255828      -0.10187677
Ni       7.61418110      -0.04467438       0.19596100        4       1.00000000       0.04181525      -0.09137976       0.11494066
Ni       1.26382602       2.19431012       0.12044868        4       1.00000000      -0.02071684       0.03092258       0.10044549
Pt       3.76470520       2.23690551       0.19151477        4       0.00000000      -0.03165593      -0.02868331      -0.10060097
Ni       6.33657849       2.22682147       0.11662001        4       1.00000000      -0.02504863       0.02684550       0.10821030
Pt       8.87161643       2.24707323       0.11169639        4       0.00000000       0.00036119       0.05632463      -0.23653643
Ni       2.51211331       4.40398971       0.08880776        4       1.00000000       0.00022233       0.01151779       0.05710696
Ni       5.09125766       4.41234306       0.08815716        4       1.00000000      -0.02842943       0.04509495       0.02646752
Ni       7.57162101       4.41067594       0.09688486        4       1.00000000      -0.02209223       0.04356984       0.06197578
Ni      10.16694711       4.41237132       0.09248692        4       1.00000000       0.03863882       0.04217195       0.03547525
Ni       3.81169366       6.51610775       0.07996281        4       1.00000000       0.02455008      -0.03684174       0.04549351
Ni       6.33272891       6.52968384       0.08202091        4       1.00000000       0.00515136      -0.00857139      -0.02760565
Ni       8.84757025       6.49371460       0.19258291        4       1.00000000      -0.02391433      -0.04321479       0.19212661
Ni      11.43007418       6.49219032       0.08022262        4       1.00000000       0.00966768      -0.05672556       0.02572767
Ni       1.30007592       0.72789726       2.18606980        3       1.00000000      -0.01115254       0.06685057       0.05213863
Ni       3.72745642       0.68591645       2.19238530        3       1.00000000      -0.09962225      -0.04156222       0.01186756
Ni       6.35417886       0.72176707       2.17774008        3       1.00000000       0.06250666      -0.00085646       0.04370814
Pt       8.88735972       0.73047891       2.19235009        3       0.00000000       0.05556673       0.00097941       0.13655288
Ni       2.49246528       2.93324224       2.22362999        3       1.00000000      -0.01283630       0.06270435       0.04579249
Ni       5.07527923       2.95797123       2.14422650        3       1.00000000      -0.01092188       0.10887578       0.01354575
Ni       7.58072573       2.95306941       2.16455603        3       1.00000000       0.01890679       0.05590285       0.01759467
Ni      10.18413964       2.95700885       2.19393890        3       1.00000000       0.06178208       0.03802272      -0.00613189
Ni       3.79095647       5.07530109       2.13723053        3       1.00000000      -0.02887991       0.00696215      -0.00078607
Ni       6.32060504       5.09722322       2.08447222        3       1.00000000       0.00151177       0.02964670       0.02270627
Ni       8.89742377       5.06531499       2.11536488        3       1.00000000       0.05002379      -0.08646895       0.04559198
Ni      11.40310176       5.08225735       2.14887623        3       1.00000000       0.00882665      -0.03233689       0.05313160
Ni       5.10909880       7.19653993       2.09862074        3       1.00000000      -0.01400698      -0.06566234       0.06006490
Ni       7.59386738       7.27009194       2.10204326        3       1.00000000      -0.05599419      -0.00889068       0.02616595
Ni      10.13972979       7.20070400       2.18946146        3       1.00000000      -0.00579506      -0.10112660       0.07779266
Ni      12.63499033       7.19358048       2.09710284        3       1.00000000       0.01042358      -0.08531476       0.02995167
Ni       0.06308475       1.46865539       4.24425687        2       1.00000000       0.05548267       0.00387218      -0.04113041
Ni       2.47462291       1.45724441       4.21344142        2       1.00000000      -0.00098362       0.04099790      -0.04390852
Pt       5.03579683       1.40498166       4.15210216        2       0.00000000      -0.02954196       0.02681182      -0.14292201
Ni       7.59716015       1.43397541       4.24842705        2       1.00000000      -0.05648456      -0.07816659      -0.06093898
Ni       1.27321717       3.62251739       4.25602421        2       1.00000000       0.01354345       0.00642769      -0.06258434
Ni       3.73733980       3.68487823       4.20103147        2       1.00000000      -0.01364758       0.03776944      -0.14026851
Pt       6.32639864       3.62725482       4.25583510        2       0.00000000       0.01957662      -0.01463524      -0.03445256
Ni       8.93625569       3.65087621       4.18298280        2       1.00000000       0.04772949       0.06488285      -0.18323049
Ni       2.50574621       5.73305244       4.23665592        2       1.00000000      -0.03906722      -0.04751721      -0.15127686
Ni       5.03868763       5.76732242       4.23976394        2       1.00000000       0.01770056      -0.05146901      -0.14086851
Pt       7.61821164       5.84103869       4.16948259        2       0.00000000       0.03505421       0.02340964       0.03286605
Ni      10.19410237       5.77125659       4.21255108        2       1.00000000      -0.00721624      -0.03824575      -0.02900313
Pt       3.80270456       7.87633939       4.19465862        2       0.00000000      -0.01393943      -0.02165363       0.02854191
Ni       6.34750928       8.00030601       4.15658037        2       1.00000000      -0.02139283       0.05796976      -0.10808369
Ni       8.86590413       7.96496930       4.15432873        2       1.00000000      -0.02021260      -0.00657455      -0.06918863
Ni      11.39240429       7.89496327       4.15846567        2       1.00000000       0.00293732      -0.06513018      -0.09069648
Pt       0.01268475      -0.07568727       6.44281274        1       0.00000000      -0.06821720       0.02530215       0.13924510
Pt       2.51358070      -0.03157336       6.37982301        1       0.00000000       0.09714368       0.01272241       0.00806673
Pt       5.07876637      -0.04713069       6.31808823        1       0.00000000      -0.07899252      -0.03897922       0.05138119
Pt       7.58316876      -0.07043427       6.43825374        1       0.00000000       0.05245506       0.02784583       0.15989309
Ni       1.26233357       2.21735226       6.34056913        1       1.00000000       0.02000642       0.02634968      -0.06267718
Pt       3.77207417       2.30000789       6.30141411        1       0.00000000      -0.02412010       0.07150151       0.05861619
Ni       6.32772925       2.20529176       6.38407049        1       1.00000000      -0.02627214       0.01755082       0.01798526
Pt       8.87348751       2.26611976       6.23723501        1       0.00000000      -0.00301266       0.04776217      -0.04283405
Ni       2.50245080       4.39172762       6.33123946        1       1.00000000      -0.00225976       0.06212478      -0.07337980
Ni       5.06823454       4.39966805       6.36938017        1       1.00000000      -0.03037730       0.08681396      -0.01311308
Ni       7.54084185       4.33935505       6.38506000        1       1.00000000      -0.11180643       0.00755088       0.02448954
Ni      10.21768648       4.33451452       6.33072066        1       1.00000000       0.13789418      -0.00338597      -0.09800218
Ni       3.79831594       6.41330713       6.35223622        1       1.00000000      -0.01834152      -0.05019703      -0.02334869
Ni       6.29855334       6.44856775       6.35259877        1       1.00000000      -0.00449096       0.01281455      -0.10340009
Pt       8.89628984       6.38584778       6.42354531        1       0.00000000       0.03947603      -0.05637347       0.23321073
Ni      11.44443114       6.44150360       6.31995425        1       1.00000000       0.01461557       0.02500344      -0.11003724
