64
Lattice="10.635873840850115 0.0232248854454014 -0.019200562697641855 5.33805026122076 9.249787342150205 0.00807566491508851 -0.01567719379451305 0.016665041956132515 9.192084259183588" Properties=species:S:1:pos:R:3:tags:I:1:initial_magmoms:R:1:forces:R:3 unique_id=400c2794db6a43bf9a58de053d01b9f4 stress="0.005800409824232508 1.9087716117007587e-06 1.854722247627397e-05 1.9087716117007587e-06 0.005801883890773948 -1.394059796267232e-05 1.854722247627397e-05 -1.394059796267232e-05 0.004526396460747949" energy=-419.9690241701216 pbc="T T T"
Pt       0.04529267       0.01166412       0.00324824        4       0.00000000      -0.00177018       0.01628883      -0.13696153
Ni       2.66970502       0.02545694       0.12831986        4       1.00000000      -0.00537842       0.03450422       0.28031688
Pt       5.22626503       0.06486518       0.02961591        4       0.00000000      -0.09649438       0.06840990      -0.02733674
Pt       7.96054570       0.03057267       0.07558259        4       0.00000000      -0.04680099       0.03797326       0.04537059
Pt       1.39355325       2.27877588       0.01120957        4       0.00000000       0.06538417      -0.03727307      -0.18353443
Ni       3.98215204       2.30164397       0.13581054        4       1.00000000      -0.03747596       0.00534701       0.27988413
Pt       6.61290507       2.31834740      -0.00184885        4       0.00000000      -0.02380832       0.00141877      -0.08994826
Pt       9.32855258       2.33689319       0.01027108        4       0.00000000       0.02494613      -0.01578589      -0.13961569
Pt       2.67506371       4.58884985       0.12357691        4       0.00000000      -0.01639796      -0.00319632      -0.01110526
Pt       5.31598407       4.60353947       0.12715679        4       0.00000000      -0.00102614      -0.01482341       0.03986625
Pt       7.98263623       4.64154687       0.11199855        4       0.00000000       0.00375077      -0.00882928       0.04411605
Pt      10.65723233       4.62844575       0.04191955        4       0.00000000       0.02213625      -0.03544433      -0.08223019
Pt       4.00711381       6.93927875       0.10632703        4       0.00000000      -0.02986393       0.02725432       0.01121494
Pt       6.67887321       6.96204314       0.12895016        4       0.00000000      -0.00660447       0.00028605       0.05568155
Pt       9.30846688       6.98739526       0.00176376        4       0.00000000      -0.01873130       0.02673016      -0.10597667
Pt      11.96001864       6.95226244       0.11083145        4       0.00000000      -0.05905745       0.03327875       0.05558354
Pt       1.34912973       0.81499580       2.33130003        3       0.00000000      -0.01363645       0.05051083       0.05533928
Ni       3.97724152       0.79185229       2.28472504        3       1.00000000      -0.00869293       0.02025756       0.08031473
Pt       6.62079783       0.79184409       2.38853977        3       0.00000000       0.04790066       0.01931444       0.09665944
Pt       9.33854225       0.85935997       2.37748503        3       0.00000000       0.06854512       0.08740116       0.03978130
Pt       2.63456431       3.08599290       2.34817820        3       0.00000000      -0.04749333       0.01064769       0.06280242
Pt       5.29749311       3.07067428       2.34670810        3       0.00000000       0.00086220      -0.06771252       0.09902909
Pt       8.00666895       3.11498698       2.38390931        3       0.00000000       0.01145525      -0.00610750       0.00129323
Ni      10.65012659       3.12059041       2.33408741        3       1.00000000       0.02191110       0.00452143       0.05310915
Pt       3.98356575       5.36905880       2.37139431        3       0.00000000      -0.01866248      -0.01034556       0.06342181
Ni       6.66379304       5.39941544       2.31042265        3       1.00000000       0.03584115      -0.03150107       0.06025438
Pt       9.36053873       5.37009271       2.35679986        3       0.00000000       0.08451716      -0.02207610       0.00478496
Ni      11.95882964       5.38900512       2.30943541        3       1.00000000      -0.02820136      -0.05986012       0.05469741
Pt       5.34218924       7.70976377       2.35773414        3       0.00000000      -0.01021369       0.06276274       0.06832618
Pt       8.01662404       7.74220454       2.32632903        3       0.00000000       0.04560385       0.01322193       0.09478900
Pt      10.64130227       7.73792661       2.36975679        3       0.00000000      -0.00111228       0.02880455       0.08463671
Pt      13.28027995       7.72011243       2.36134426        3       0.00000000       0.01000372       0.02806056       0.08861514
Ni      -0.04459921       1.58959051       4.62991639        2       1.00000000      -0.08587580       0.05055998       0.03744706
Pt       2.65217133       1.59243984       4.58597006        2       0.00000000       0.08363502       0.01750045       0.05981687
Pt       5.36188477       1.53878053       4.62128931        2       0.00000000       0.03333418      -0.01497912       0.05917764
Ni       8.00593007       1.59339137       4.59797212        2       1.00000000       0.08749220       0.11993305      -0.01209361
Pt       1.23276984       3.80606793       4.57265248        2       0.00000000      -0.11104654      -0.07440266      -0.07970038
Ni       3.98469907       3.84829021       4.58456091        2       1.00000000      -0.01554023      -0.06544206       0.03123335
Pt       6.69234577       3.81479503       4.56656779        2       0.00000000       0.04041137      -0.01175535      -0.01204900
Ni       9.32632010       3.81274519       4.59243693        2       1.00000000      -0.00608122      -0.16989581      -0.02264816
Pt       2.63417518       6.15313404       4.55903043        2       0.00000000      -0.03883447      -0.07979773       0.00324035
Pt       5.32777366       6.13883472       4.54413149        2       0.00000000      -0.00981599      -0.01540800      -0.00826990
Pt       7.99926014       6.15248653       4.55364253        2       0.00000000      -0.02103781      -0.03294422      -0.08591096
Pt      10.63184627       6.15032901       4.59097978        2       0.00000000      -0.06248417      -0.05027006       0.00278381
Pt       3.96741173       8.58080894       4.60256269        2       0.00000000      -0.03362276       0.04555557      -0.00348513
Pt       6.62940912       8.55546491       4.60882677        2       0.00000000      -0.00896558       0.08447165       0.05115545
Pt       9.36031331       8.51039165       4.62259692        2       0.00000000      -0.03347831       0.00071252       0.04971305
Ni      11.97886289       8.51936089       4.59806009        2       1.00000000       0.01938823      -0.00430969       0.01934405
Ni      -0.01277330       0.05843544       6.74949500        1       1.00000000      -0.01447115       0.14602329      -0.22448538
Pt       2.65148334       0.03200126       6.87020544        1       0.00000000      -0.01229711       0.00632835       0.17279858
Ni       5.31277595       0.02614279       6.75813895        1       1.00000000       0.01939464       0.00419961      -0.11289868
Pt       7.93603597       0.13935882       6.71684914        1       0.00000000      -0.05830145       0.13034581       0.00874938
Ni       1.27797280       2.31227608       6.75161047        1       1.00000000      -0.13861507      -0.06911001      -0.26408666
Pt       4.00872065       2.29429441       6.84956922        1       0.00000000       0.04957992      -0.01990403       0.17449152
Ni       6.65963238       2.32456663       6.74222369        1       1.00000000       0.07452235       0.05933752      -0.18425988
Ni       9.32821872       2.33467205       6.70599197        1       1.00000000       0.14588929      -0.04068061      -0.29581076
Pt       2.59913307       4.58889216       6.76192156        1       0.00000000      -0.06435053      -0.06997120      -0.04200137
Pt       5.33514443       4.59738234       6.76259691        1       0.00000000       0.02836192      -0.02635222      -0.00309980
Pt       8.07676952       4.58104371       6.75506397        1       0.00000000       0.15222557      -0.09190259       0.01318628
Ni      10.62495491       4.62764446       6.74500797        1       1.00000000       0.03097222      -0.09958556      -0.18020050
Pt       3.98846429       6.99651634       6.77611164        1       0.00000000      -0.02469111       0.06501783      -0.01434548
Pt       6.68712644       6.96540543       6.78573856        1       0.00000000       0.05597253      -0.08010758       0.00951562
Ni       9.31815544       6.95540371       6.75885417        1       1.00000000      -0.02498617      -0.05258882      -0.20372654
Pt      11.89169101       7.00099987       6.75186951        1       0.00000000      -0.02811944       0.07538270       0.01323978
