64
Lattice="10.43771671530695 0.007137459076042674 0.06990753299009073 5.225039578531801 9.096018074224897 0.031875373219942445 0.057079261667501574 -0.0029023370133124385 9.023794925512924" Properties=species:S:1:pos:R:3:tags:I:1:initial_magmoms:R:1:forces:R:3 unique_id=94c36ebfe50e4e0c842cc50a1976ec4d stress="0.0005793547309797045 3.190614952901076e-06 -1.7950671295596933e-05 3.190614952901076e-06 0.0005824827023867413 7.900154121059121e-06 -1.7950671295596933e-05 7.900154121059121e-06 0.0005010902483917126" energy=-407.16600803331926 pbc="T T T"
Pt      -0.06388150       0.03552243       0.04801227        4       0.00000000      -0.10676302       0.12106497      -0.10975889
Ni       2.63978523      -0.01775420       0.07479680        4       1.00000000       0.09726732      -0.06259435       0.17564570
Ni       5.25872751      -0.02122530       0.17578416        4       1.00000000       0.18682791      -0.00955883       0.24190891
Ni       7.79249593       0.03779735       0.15320951        4       1.00000000      -0.17196632       0.14298496       0.24376447
Pt       1.26209658       2.28250227       0.00058906        4       0.00000000      -0.02135250       0.04349270      -0.16449322
Pt       3.98984695       2.20559964       0.12955843        4       0.00000000       0.12895084      -0.14035061       0.27152740
Ni       6.57738226       2.23467003       0.18912789        4       1.00000000       0.14630316      -0.19121071       0.16346077
Ni       9.09366828       2.28863549       0.12887688        4       1.00000000      -0.17436724       0.04248770       0.15679063
Pt       2.56851946       4.57733064       0.11546067        4       0.00000000       0.03160534       0.02881311       0.18441310
Pt       5.32819534       4.49216375       0.18112863        4       0.00000000       0.23156926      -0.12749980       0.15660546
Ni       7.89056256       4.53591998       0.19786584        4       1.00000000       0.21542389      -0.02300676       0.20150153
Ni      10.38643171       4.58028555       0.12915266        4       1.00000000      -0.16714862       0.09998577       0.12205020
Pt       3.85462043       6.89219957       0.18989368        4       0.00000000      -0.08933598       0.02951590       0.16173742
Pt       6.59947729       6.81392984       0.18110359        4       0.00000000       0.09982499       0.02227676       0.28641677
Ni       9.17538359       6.81040663       0.12567918        4       1.00000000       0.11622641      -0.06480956       0.12233125
Ni      11.71624617       6.85900769       0.20594602        4       1.00000000      -0.01081657       0.07828987       0.12803588
Pt       1.27511236       0.71591806       2.27062382        3       0.00000000      -0.06427470       0.02780034      -0.17064749
Pt       4.02645861       0.75535553       2.32336390        3       0.00000000       0.05958672       0.12589552       0.08113655
Ni       6.58391732       0.77484970       2.29368237        3       1.00000000       0.11779271       0.03729107      -0.00756222
Ni       9.08512537       0.74713500       2.31291891        3       1.00000000      -0.16093556       0.05214819      -0.06215524
Pt       2.66260967       3.04549779       2.34021828        3       0.00000000      -0.00385462       0.00862609      -0.11935563
Ni       5.27850914       3.01973387       2.36041041        3       1.00000000      -0.01760641      -0.03739200       0.20344982
Pt       7.76776632       3.02660158       2.32949757        3       0.00000000      -0.03426019      -0.04994468       0.06357535
Pt      10.35794838       3.05146030       2.31240231        3       0.00000000      -0.10209200      -0.09060550      -0.13659630
Pt       4.00120487       5.32193410       2.33829395        3       0.00000000       0.06464329      -0.03507152      -0.14259438
Ni       6.58634036       5.27461313       2.33351348        3       1.00000000       0.16384843      -0.11054207       0.03855260
Ni       9.11720746       5.29886986       2.32677300        3       1.00000000      -0.07938057      -0.08296689       0.06205315
Pt      11.69282737       5.35190881       2.33803944        3       0.00000000      -0.05262679      -0.03077101      -0.06235451
Ni       5.21563716       7.58794090       2.30162796        3       1.00000000      -0.00109118       0.02391999      -0.05893186
Pt       7.86819645       7.48875711       2.34381154        3       0.00000000      -0.05203269      -0.10465892       0.00477658
Pt      10.49547948       7.59447505       2.26091646        3       0.00000000       0.09357835      -0.02646606       0.05364459
Ni      13.07178356       7.65547718       2.34928550        3       1.00000000      -0.00593772       0.16215344      -0.00467933
Pt      -0.07701008       1.57069853       4.56908627        2       0.00000000      -0.24620919       0.07524349      -0.11553514
Pt       2.65844301       1.52320242       4.52006168        2       0.00000000       0.01503655       0.04950978       0.07998200
Ni       5.29347545       1.56827345       4.49784404        2       1.00000000       0.11079482       0.17545523      -0.09207658
Ni       7.83266520       1.56033658       4.52425858        2       1.00000000      -0.11278277       0.13843344      -0.16808039
Pt       1.23556657       3.81677448       4.52289544        2       0.00000000      -0.10815946       0.14182833       0.00409140
Ni       3.99410189       3.76149617       4.49323354        2       1.00000000       0.12147072      -0.04538890      -0.04768262
Ni       6.58233975       3.75388651       4.49732982        2       1.00000000       0.06944446      -0.08935586      -0.06453170
Ni       9.11813592       3.82386257       4.54765672        2       1.00000000      -0.22727260       0.07612283      -0.17441535
Pt       2.61027368       6.07239438       4.46603967        2       0.00000000      -0.03825295       0.05581371       0.07104654
Pt       5.34506346       6.00179729       4.44862934        2       0.00000000       0.16857797      -0.03450701       0.09074628
Ni       7.90971896       5.99905889       4.52577112        2       1.00000000       0.12288566      -0.25172408      -0.10526460
Ni      10.40933104       6.04243157       4.58506935        2       1.00000000      -0.16806962      -0.04698911      -0.00101594
Pt       3.92383763       8.39125024       4.43892383        2       0.00000000      -0.04028682      -0.02216447      -0.15986490
Pt       6.54975186       8.34055348       4.53696550        2       0.00000000      -0.08022396      -0.03639928       0.06590620
Pt       9.17686466       8.26510577       4.59949096        2       0.00000000      -0.01415963      -0.08504948       0.16783560
Pt      11.77440179       8.42589230       4.51834899        2       0.00000000      -0.07900397       0.18181020       0.05073345
Ni       0.03657165       0.04945251       6.64181020        1       1.00000000      -0.03090056       0.09689099      -0.21337864
Ni       2.62607361       0.00651997       6.73183685        1       1.00000000      -0.12676005       0.09500005      -0.09406815
Pt       5.22676240      -0.01991121       6.79768032        1       0.00000000      -0.03500853      -0.05837969       0.16715208
Ni       7.89363835       0.03147799       6.76236891        1       1.00000000       0.06701009       0.01666930      -0.12490385
Ni       1.29348705       2.24887277       6.62956394        1       1.00000000      -0.12856518      -0.05175368      -0.26438151
Pt       3.92982131       2.23794177       6.65896217        1       0.00000000      -0.05290681      -0.01896389      -0.28749837
Pt       6.65533951       2.22823359       6.71179201        1       0.00000000       0.12811573      -0.05860407       0.03773614
Ni       9.19853958       2.26763364       6.77746447        1       1.00000000       0.05829756      -0.00612565       0.02702035
Pt       2.59491331       4.50740255       6.65975312        1       0.00000000      -0.02694062      -0.04296610      -0.30790720
Pt       5.29194399       4.52418074       6.65683242        1       0.00000000       0.10253060       0.01773593      -0.16570138
Pt       7.98777902       4.54809635       6.71870471        1       0.00000000       0.07592621      -0.05789411       0.06631367
Ni      10.45849818       4.53436198       6.76922842        1       1.00000000       0.01009776      -0.10505529      -0.09036277
Pt       3.95499663       6.90597875       6.69280186        1       0.00000000       0.01826557       0.10721888      -0.17978925
Pt       6.65073455       6.87238298       6.70414979        1       0.00000000       0.07482627       0.05787266      -0.20441228
Ni       9.17903169       6.80867123       6.76249467        1       1.00000000       0.00928618      -0.07193883      -0.07984818
Pt      11.70543834       6.80431945       6.81275655        1       0.00000000      -0.07466936      -0.06164242       0.02790604
