64
Lattice="10.323601895912967 -0.020705478661819612 -0.0054050166016183935 5.143869477437831 8.912748307708135 -0.04747454032382172 0.0 0.0 21.606067838646698" Properties=species:S:1:pos:R:3:tags:I:1:initial_magmoms:R:1:forces:R:3 unique_id=29e33ac627334cd38928cfa4f54cdf69 stress="0.005412471609133842 -2.3718522548147275e-05 0.0001318386665358479 -2.3718522548147275e-05 0.005540882364984801 -0.0003680737471328439 0.0001318386665358479 -0.0003680737471328439 -0.0019589522118138754" energy=-376.9542599161393 pbc="T T T"
Ni       0.02036147       0.02266327       0.17923265        2       1.00000000       0.06260040       0.03998361      -0.02376434
Ni       2.57355014      -0.00663776       0.18514683        2       1.00000000      -0.05989612       0.00695199      -0.09803439
Ni       5.13230948      -0.02898202       0.13698462        1       1.00000000      -0.04615862       0.18994840      -0.41101022
Pt       7.79348974      -0.09118913       0.06070488        1       0.00000000       0.09808626      -0.07362579      -0.14828667
Ni       1.26383898       2.22008086       0.05650289        1       1.00000000      -0.01901080      -0.06628226       0.33333468
Pt       3.78422217       2.22659194       0.07956174        1       0.00000000       0.01288087      -0.00898070       0.01541395
Pt       6.43806941       2.23740771       0.10838214        1       0.00000000      -0.05246039       0.04074369      -0.70311806
Ni       9.05505050       2.19312930       0.10580543        1       1.00000000      -0.09962076      -0.08867018      -0.09062651
Ni       2.57044248       4.46534968       0.02891344        0       1.00000000       0.09316468      -0.00532076       0.22906043
Ni       5.11374935       4.46654429       0.13752651        1       1.00000000      -0.04417651       0.03899604       0.07145381
Pt       7.81075040       4.47021034       0.05798271        1       0.00000000       0.04229485       0.05116442      -0.01736902
Ni      10.34424310       4.44162076       0.01196008        0       1.00000000       0.06317747      -0.00358906       0.21470981
Ni       3.84425027       6.64379413       0.13501127        1       1.00000000      -0.03117966      -0.11666116       0.08635617
Pt       6.41081748       6.71606504       0.13822442        1       0.00000000      -0.03105533       0.02133441      -0.45041063
Ni       9.03460886       6.67973532       0.01060906        0       1.00000000      -0.11596927      -0.00087188       0.09581544
Ni      11.60134608       6.63672061       0.00000000        0       1.00000000       0.11664707      -0.04686510       0.12187771
Ni       1.29065049       0.71762123       2.15235637        4       1.00000000       0.00856256      -0.01631847       0.01264390
Ni       3.83331464       0.74550693       2.17664205        4       1.00000000      -0.03246482       0.05010186       0.16027092
Pt       6.46377923       0.76951583       2.26559118        5       0.00000000       0.00190056       0.19634105       0.09663475
Ni       9.05651704       0.70020955       2.18866553        4       1.00000000       0.03340224      -0.01553678       0.16649158
Ni       2.59899997       2.95461279       2.18313269        4       1.00000000       0.06068035       0.02265147       0.16429324
Ni       5.10944390       3.00020391       2.20398109        4       1.00000000      -0.19704964       0.10155239       0.15307362
Ni       7.75133901       2.97519813       2.20685832        4       1.00000000       0.05461969       0.04741120       0.15346989
Pt      10.29263400       2.88990106       2.15391526        4       0.00000000       0.09625810       0.01667596       0.02054284
Ni       3.90174547       5.18751728       2.17315430        4       1.00000000       0.15545376      -0.02288528       0.15507178
Ni       6.42245430       5.18577581       2.19232822        4       1.00000000      -0.07359021       0.06698953       0.16880396
Ni       8.98696894       5.16968452       2.19134248        4       1.00000000      -0.09755363      -0.08333358       0.21350094
Pt      11.68118576       5.16136647       2.10228193        3       0.00000000       0.09909735      -0.10712809       0.02545705
Ni       5.11547908       7.40264276       2.14736145        3       1.00000000      -0.11342853      -0.11614549       0.03340830
Ni       7.71129011       7.40757354       2.14779661        3       1.00000000      -0.00803978      -0.08542336       0.05784519
Pt      10.25614006       7.38281603       2.05722630        3       0.00000000       0.05910851      -0.08827987      -0.06908994
Ni      12.93574393       7.37328698       2.13783680        3       1.00000000       0.05736818      -0.07048458       0.10348171
Ni      -0.02775847       1.48572277       4.33029851        7       1.00000000       0.00083296      -0.04874267      -0.24872700
Pt       2.60798727       1.51439041       4.29694271        7       0.00000000      -0.04437174      -0.01802179      -0.12731673
Ni       5.14567625       1.49303180       4.32892918        7       1.00000000      -0.04094872       0.14493704      -0.23161764
Ni       7.78125478       1.48247597       4.32698692        7       1.00000000       0.20016646       0.08945436      -0.28130136
Pt       1.29433520       3.69737171       4.41121562        8       0.00000000      -0.02591199      -0.04061699      -0.00845548
Ni       3.87426803       3.71906427       4.30932778        7       1.00000000       0.07977907       0.11461111      -0.28498881
Pt       6.45470126       3.71586315       4.22933939        6       0.00000000      -0.06882750       0.01967159      -0.06965297
Ni       9.00213290       3.66644726       4.32585124        7       1.00000000      -0.06519246      -0.08175364      -0.28709272
Ni       2.59894565       5.88901462       4.31937208        7       1.00000000       0.16037035      -0.07328658      -0.20161454
Ni       5.11955301       5.88419024       4.27347630        7       1.00000000      -0.10108023      -0.02359922      -0.35994333
Ni       7.73058763       5.86947793       4.28946055        7       1.00000000      -0.06441159      -0.01815316      -0.33054860
Pt      10.26651205       5.85385086       4.38784182        8       0.00000000      -0.03873025      -0.02502484      -0.10295073
Pt       3.85420294       8.15531645       4.22630819        6       0.00000000       0.02923786       0.01463764      -0.04965312
Pt       6.41061321       8.11636546       4.18955025        6       0.00000000      -0.05280784      -0.01453126      -0.16172525
Pt       8.99654474       8.12997941       4.26922545        7       0.00000000      -0.09058718      -0.00106612      -0.05788933
Pt      11.62882127       8.12973378       4.33040664        7       0.00000000       0.05384015      -0.06166888      -0.00214221
Pt      -0.01813116       0.01731964       6.56880132       11       0.00000000       0.04464958       0.04977085       0.13206934
Pt       2.59422299       0.02203606       6.60606784       11       0.00000000       0.01025908       0.00728398       0.33419503
Pt       5.18839363      -0.09470618       6.58567557       11       0.00000000      -0.03245958       0.07681316       0.53429695
Ni       7.74351386      -0.04231667       6.45532804       10       1.00000000       0.06671863       0.13838723       0.29013784
Ni       1.30148969       2.25433336       6.52307542       10       1.00000000       0.01818362      -0.00463911      -0.09843998
Ni       3.83918722       2.22310516       6.43871900        9       1.00000000       0.03559005      -0.06690775       0.06204579
Pt       6.45661191       2.17724332       6.41249552        9       0.00000000       0.02412231      -0.03121049       0.63631214
Pt       9.07110214       2.27510143       6.47960791       10       0.00000000       0.01498468       0.07754120       0.03703576
Ni       2.52435615       4.40946749       6.50488203       10       1.00000000      -0.02348873       0.04357436      -0.15432631
Pt       5.08051815       4.38711473       6.49782401       10       0.00000000      -0.09638239       0.07554189       0.04538771
Ni       7.78039860       4.43623330       6.40904248        9       1.00000000       0.06956798       0.06670200      -0.05849730
Ni      10.32515948       4.44029498       6.51474867       10       1.00000000       0.00283301       0.05730243      -0.07879616
Pt       3.74832796       6.63673712       6.50409354       10       0.00000000       0.11065928      -0.11152048      -0.03136031
Pt       6.49615993       6.59616439       6.41895302        9       0.00000000      -0.16216655      -0.05432591       0.42773552
Ni       9.04360491       6.59556525       6.49944940       10       1.00000000      -0.08547594      -0.02178760      -0.04424022
Ni      11.57679559       6.59441907       6.49877300       10       1.00000000      -0.02260124      -0.15381598      -0.06923783
