64
Lattice="10.3279740864166 -0.015523249773994118 0.0227763715136164 5.150543514554731 8.913896293598668 -0.008860353872347487 0.0 0.0 21.596432926935865" Properties=species:S:1:pos:R:3:tags:I:1:initial_magmoms:R:1:forces:R:3 unique_id=0879222578f2428fab2b7041026badd1 stress="0.0059268129099686664 -0.00012751548729980183 1.2461843182928167e-05 -0.00012751548729980183 0.005425159513569884 -5.5654284807403375e-05 1.2461843182928167e-05 -5.5654284807403375e-05 -0.000838895084820929" energy=-377.27112058506884 pbc="T T T"
Ni       0.04706835       0.00078193       0.10545839        1       1.00000000       0.14711394       0.01723046      -0.04424043
Ni       2.54021089       0.00816338       0.14291252        1       1.00000000      -0.10618403       0.05152158       0.05745457
Pt       5.08655606      -0.05316919       0.07291039        1       0.00000000      -0.15715837       0.13955593      -0.92796647
Pt       7.79514078      -0.13121731       0.11703838        1       0.00000000      -0.02611389      -0.08587865      -0.82839360
Ni       1.29715281       2.23544038       0.04027734        0       1.00000000      -0.02135484       0.04820307       0.48321495
Pt       3.77399229       2.28593038       0.05804205        1       0.00000000       0.04263545      -0.03448861       0.15031459
Pt       6.42782884       2.28313068       0.10948449        1       0.00000000       0.05399696       0.04083656      -0.74338968
Pt       9.14063409       2.24657892       0.10693284        1       0.00000000      -0.08024920       0.09006022      -0.50134606
Ni       2.57053045       4.48317036       0.00000000        0       1.00000000       0.03905027       0.04165967       0.37852391
Ni       5.11143114       4.48726774       0.04494402        0       1.00000000      -0.09232528       0.13772923       0.41934634
Pt       7.78347956       4.51730031       0.06294718        1       0.00000000       0.04420466       0.08744310       0.02068648
Ni      10.37388653       4.46583329       0.03230814        0       1.00000000       0.07983948      -0.00524516       0.33070285
Ni       3.85218327       6.62659495       0.03554432        0       1.00000000      -0.03085240      -0.15494050       0.47203745
Pt       6.40166299       6.72693911       0.12985538        1       0.00000000      -0.00146081       0.04606883      -0.19333679
Ni       9.03188569       6.65397697       0.10714345        1       1.00000000      -0.12992400      -0.00661276      -0.22925949
Ni      11.62183841       6.61044938       0.02503977        0       1.00000000       0.05306645      -0.00655166       0.23571999
Ni       1.33361166       0.73570919       2.17010372        2       1.00000000       0.17406690       0.01216276       0.07985309
Ni       3.81494440       0.76527216       2.19479642        2       1.00000000      -0.11782978       0.06775545       0.21979288
Pt       6.40950810       0.78639716       2.25554406        3       0.00000000      -0.11919022       0.16521738       0.10683630
Pt       9.16622532       0.71515343       2.23529381        2       0.00000000       0.15816523       0.04166708       0.04900141
Ni       2.58215544       2.95637741       2.19400531        2       1.00000000       0.02854648      -0.01816891       0.12483185
Ni       5.10886620       3.02438675       2.21986067        2       1.00000000      -0.21939283       0.18916750       0.16328971
Ni       7.76881350       3.02845937       2.21722600        2       1.00000000       0.08884583       0.14032838       0.22840391
Ni      10.36461290       2.96294043       2.24190458        2       1.00000000       0.13828182      -0.04123782       0.29109230
Ni       3.90331308       5.18776124       2.17761750        2       1.00000000       0.15153646      -0.04086353       0.08010202
Ni       6.43354254       5.20417391       2.21065894        2       1.00000000      -0.08799529       0.05659093       0.15100416
Ni       9.00079270       5.14892462       2.21145813        2       1.00000000      -0.11029378      -0.21818013       0.27960261
Pt      11.67944528       5.10210756       2.15545783        2       0.00000000       0.17392597      -0.14839236       0.05238205
Ni       5.17708004       7.38344153       2.19638959        2       1.00000000       0.04418111      -0.18399540       0.20763137
Ni       7.68724604       7.41871931       2.19296987        2       1.00000000      -0.16214975      -0.01154393       0.26605635
Pt      10.26945752       7.33085481       2.16184813        2       0.00000000       0.02864387      -0.17991552      -0.11262441
Ni      12.94796827       7.34080335       2.19214260        2       1.00000000       0.17257847      -0.23958630       0.12888745
Ni       0.05155936       1.51600344       4.34257060        4       1.00000000       0.08875844       0.05063016      -0.18367206
Pt       2.55145699       1.56943111       4.30832659        4       0.00000000       0.00126196       0.01300541      -0.04921295
Ni       5.12532315       1.52041307       4.35680338        5       1.00000000      -0.17324539       0.13472166      -0.28579262
Pt       7.79693696       1.53366905       4.34140662        4       0.00000000       0.05616171      -0.00747028      -0.09890801
Ni       1.30566875       3.69620037       4.38563100        5       1.00000000       0.04879672      -0.00751506      -0.07567772
Ni       3.85806704       3.74458887       4.37369516        5       1.00000000      -0.05203617       0.15434694      -0.16418209
Pt       6.40917551       3.80143346       4.28812453        4       0.00000000      -0.05889123       0.05362185      -0.12872487
Ni       9.05561347       3.70995580       4.33709486        4       1.00000000      -0.04817428       0.00640067      -0.35789701
Ni       2.62485068       5.86142109       4.38812802        5       1.00000000       0.11681119      -0.27828640      -0.07372930
Ni       5.13928996       5.90241517       4.32542842        4       1.00000000      -0.09106525      -0.11452286      -0.34727827
Ni       7.72429687       5.91332115       4.32348617        4       1.00000000      -0.01892584       0.02951540      -0.45567402
Pt      10.33739172       5.79269917       4.38558092        5       0.00000000       0.01269463      -0.08731541      -0.02234133
Pt       3.96097713       8.05382838       4.30074778        4       0.00000000       0.09869316      -0.14016839       0.05153094
Ni       6.44872298       8.13971057       4.30814197        4       1.00000000      -0.02698438      -0.00654150      -0.37569904
Pt       8.93815579       8.14715870       4.28551152        4       0.00000000      -0.12170067      -0.01698333      -0.13615010
Pt      11.63671048       8.07754350       4.32919115        4       0.00000000       0.02914886      -0.21748481      -0.08638676
Pt       0.02466969       0.00011245       6.55929770        8       0.00000000       0.09556131       0.10988683       0.13655387
Pt       2.58056961       0.05430094       6.59643293        8       0.00000000      -0.03899670      -0.08092481       0.13341004
Pt       5.16250505      -0.00693698       6.48728776        7       0.00000000      -0.02187649       0.15166160       0.89801565
Pt       7.77247115      -0.10274777       6.53490916        7       0.00000000      -0.00174905       0.16717841       0.98617524
Ni       1.33055994       2.29063689       6.52770546        7       1.00000000       0.07827613       0.19856669      -0.33026938
Ni       3.84686636       2.28738940       6.46888083        7       1.00000000      -0.04341812       0.20017033      -0.13837442
Pt       6.39970478       2.30803071       6.49906745        7       0.00000000      -0.04745219      -0.04416922       0.69675065
Pt       9.12813302       2.32022232       6.48621550        7       0.00000000       0.03715255       0.03388100       0.64971720
Ni       2.59036397       4.45153291       6.51544782        7       1.00000000       0.02019462      -0.05801916      -0.60421870
Ni       5.09830143       4.44961634       6.52897474        7       1.00000000      -0.29370568       0.01181168      -0.40950658
Ni       7.75253487       4.43874207       6.47186355        7       1.00000000       0.04293271       0.03422653      -0.10291904
Ni      10.40454871       4.42873401       6.55488143        8       1.00000000       0.25487197      -0.02272173      -0.21881786
Ni       3.84490381       6.59275468       6.52624067        7       1.00000000      -0.07741268      -0.18094675      -0.39022876
Pt       6.40117918       6.57795895       6.44057078        6       0.00000000       0.00704742       0.06213107       0.16703282
Pt       9.06872837       6.56717846       6.59507308        8       0.00000000      -0.11316898      -0.02006301       0.15770053
Ni      11.65961845       6.58239429       6.56390694        8       1.00000000       0.08423485      -0.12622039      -0.23743772
