64
Lattice="10.386168237082519 -0.02231877503149893 -0.01886310251277051 5.173755492382684 8.983108740629023 -0.028133487073099307 -0.015401658707366532 -0.017632354183085393 8.908627221286018" Properties=species:S:1:pos:R:3:tags:I:1:initial_magmoms:R:1:forces:R:3 unique_id=da1b9f139295446fa2b0eddc2294246d stress="0.000513287547126158 -9.605544957663373e-07 9.46910117726819e-07 -9.605544957663373e-07 0.0005113531572279242 2.5263971927476176e-06 9.46910117726819e-07 2.5263971927476176e-06 0.000466318616683975" energy=-403.1126736304142 pbc="T T T"
Ni       0.01358506       0.01849841       0.16427494        4       1.00000000       0.11474739       0.02952216       0.24933508
Pt       2.58264649      -0.00068752       0.20871773        4       0.00000000      -0.00881669      -0.01301466       0.23615493
Ni       5.17605578      -0.01080378       0.13865610        4       1.00000000      -0.04672459       0.13632374       0.26752220
Pt       7.83745431      -0.05591058       0.13854206        4       0.00000000       0.03743109      -0.03289079       0.30177120
Ni       1.25478113       2.27363812       0.09449374        4       1.00000000      -0.13659834       0.07825932       0.28597339
Pt       3.83653861       2.30769039       0.10872427        4       0.00000000      -0.07133495       0.09274308      -0.05296238
Pt       6.48104412       2.27597864       0.13904552        4       0.00000000       0.00262881       0.06150716       0.19956339
Ni       9.12984562       2.24377483       0.14062652        4       1.00000000       0.10055486       0.05433408       0.28014926
Ni       2.58722365       4.48055057       0.06536678        4       1.00000000       0.02372246      -0.02169046       0.14951351
Ni       5.14719270       4.50404393       0.15411691        4       1.00000000      -0.08787377       0.07192828       0.36318082
Pt       7.86169081       4.49790456       0.09261587        4       0.00000000       0.16631422       0.04475535      -0.07310767
Ni      10.38800896       4.43204625       0.04554822        4       1.00000000       0.09320922      -0.21641006       0.19340157
Ni       3.88031520       6.70304173       0.15886910        4       1.00000000      -0.04230153      -0.18338696       0.38038567
Pt       6.41938260       6.71286091       0.17194939        4       0.00000000      -0.09402323      -0.06821089       0.02560427
Ni       9.06921065       6.71761402       0.04247055        4       1.00000000      -0.10324250      -0.01039309       0.06433956
Pt      11.66240470       6.65170353      -0.00806355        4       0.00000000      -0.00159625      -0.18500611      -0.24903715
Ni       1.30552720       0.77225478       2.23155695        3       1.00000000       0.11312568       0.20521791       0.04083558
Ni       3.86667505       0.77835303       2.24665130        3       1.00000000      -0.02294775       0.16685727       0.05855656
Pt       6.42381307       0.77639248       2.27035037        3       0.00000000      -0.03161641       0.13829610      -0.07452644
Pt       9.19474189       0.77359390       2.21327342        3       0.00000000       0.05004176       0.07580028       0.01611243
Ni       2.59543782       2.98057904       2.22436183        3       1.00000000       0.01230335       0.03945596       0.03703116
Ni       5.14008443       3.03732634       2.25060411        3       1.00000000      -0.20322307       0.16127012       0.06934481
Ni       7.81120333       3.03364069       2.22961813        3       1.00000000       0.12757214       0.16032950      -0.00645224
Ni      10.38173462       2.97491487       2.19532585        3       1.00000000       0.08523215       0.11565504       0.05647082
Ni       3.91466132       5.22764089       2.22656886        3       1.00000000       0.08266732      -0.05642014       0.11887048
Ni       6.46102638       5.22769295       2.24032144        3       1.00000000      -0.04949493       0.07703647      -0.01909202
Ni       9.04417539       5.19351248       2.23406001        3       1.00000000      -0.03775784      -0.12934564       0.18399496
Pt      11.71350690       5.14265429       2.19070794        3       0.00000000       0.06236571      -0.02723856      -0.01224193
Ni       5.16413014       7.43594631       2.20545762        3       1.00000000      -0.10809268      -0.19207318      -0.04503446
Ni       7.74213133       7.44080339       2.22329238        3       1.00000000      -0.09747845      -0.25331864      -0.03118381
Pt      10.28686128       7.43476179       2.13809294        3       0.00000000      -0.02372299      -0.18663176      -0.15372482
Ni      13.00439285       7.41226083       2.19525963        3       1.00000000       0.00862668      -0.21077534      -0.04388271
Ni       0.00933360       1.51687272       4.41273347        2       1.00000000       0.13885914       0.02057157      -0.04262156
Pt       2.61637667       1.54706645       4.35696943        2       0.00000000       0.04511041      -0.03731955      -0.08049596
Ni       5.15701226       1.51712406       4.40423878        2       1.00000000       0.00774979       0.13419337      -0.04346276
Pt       7.83333773       1.54885761       4.36142875        2       0.00000000       0.12461620       0.08105393       0.11943850
Pt       1.28467474       3.72745192       4.46122117        2       0.00000000      -0.02784155      -0.05007853      -0.00369172
Ni       3.88464302       3.75854597       4.38894614        2       1.00000000      -0.00336677       0.11975295      -0.24457436
Pt       6.45576097       3.80931863       4.30116380        2       0.00000000      -0.06850642      -0.04141183      -0.01969921
Ni       9.06517042       3.73876809       4.38291323        2       1.00000000      -0.03444122       0.01541455      -0.24765707
Ni       2.60415803       5.93090871       4.40126759        2       1.00000000       0.06535205      -0.20855572      -0.18338175
Ni       5.14929267       5.94080323       4.35170289        2       1.00000000      -0.10078987      -0.06557599      -0.22293942
Ni       7.77348089       5.93513915       4.36983993        2       1.00000000      -0.04299610      -0.01638107      -0.25435587
Pt      10.30724457       5.89409160       4.45533522        2       0.00000000      -0.11218145      -0.03089174      -0.16194247
Pt       3.88917697       8.14830044       4.31447727        2       0.00000000      -0.03434684      -0.13987295       0.00719121
Pt       6.45245119       8.18404598       4.26828213        2       0.00000000      -0.05069139      -0.04160700      -0.02564894
Pt       9.03914366       8.20023367       4.33554245        2       0.00000000      -0.01352287       0.04705424       0.03182464
Pt      11.66617930       8.16155975       4.35617431        2       0.00000000       0.03603949      -0.10293580      -0.01664129
Pt       0.01434150       0.03458532       6.64572022        1       0.00000000      -0.00572996       0.02244135       0.01838120
Pt       2.59553329       0.03448897       6.60221901        1       0.00000000       0.00273017       0.09676397      -0.08964793
Pt       5.16218849      -0.06833509       6.64396748        1       0.00000000       0.01518004      -0.13463903       0.05561761
Pt       7.77722809      -0.04466093       6.57419124        1       0.00000000       0.05208579       0.08204382      -0.22161654
Ni       1.30845078       2.29118461       6.61055283        1       1.00000000       0.13275905       0.14505155      -0.05605952
Ni       3.84442473       2.25779235       6.53399000        1       1.00000000      -0.08876026       0.05717795      -0.23357582
Pt       6.45319066       2.25624520       6.53436618        1       0.00000000       0.03975856       0.07192778      -0.23724023
Pt       9.15378289       2.34491053       6.61202464        1       0.00000000       0.15491208       0.21562358       0.15861651
Ni       2.53301925       4.45303855       6.59831560        1       1.00000000      -0.14562580      -0.07424047      -0.11353216
Pt       5.10244913       4.43811665       6.59401614        1       0.00000000      -0.11911824      -0.06968593       0.08811626
Ni       7.81379929       4.49226095       6.51544061        1       1.00000000       0.08578510       0.08154808      -0.28482797
Ni      10.38637809       4.49349603       6.59629328        1       1.00000000       0.12567505       0.19420403       0.00292462
Pt       3.79995913       6.65545677       6.60157155        1       0.00000000      -0.10396236      -0.00932893       0.13784407
Pt       6.53157397       6.66071481       6.51917255        1       0.00000000       0.01081997      -0.02688475      -0.17041665
Ni       9.08932899       6.66409889       6.58793537        1       1.00000000       0.01718538      -0.10931085      -0.11511393
Ni      11.63298333       6.65146397       6.50313108        1       1.00000000      -0.01643402      -0.14858811      -0.36767752
