64
Lattice="10.139917510043226 0.025027782377616742 -0.03312564488188696 5.0916334503610745 8.764504570326844 -0.01191135210232965 -0.027046975787086917 0.00438544829189603 8.640891733600286" Properties=species:S:1:pos:R:3:tags:I:1:initial_magmoms:R:1:forces:R:3 unique_id=6a41178df48f4561a121faac441ab76a stress="-0.007100125606816485 9.419408470756377e-06 2.5874916470939137e-05 9.419408470756377e-06 -0.007035344169883724 1.7783938003403185e-06 2.5874916470939137e-05 1.7783938003403185e-06 -0.006088189239718468" energy=-389.71903803354684 pbc="T T T"
Ni       0.03307068      -0.04746222       0.19776207        4       1.00000000       0.04107255      -0.05120794       0.10309443
Ni       2.48603617      -0.02454761       0.19133283        4       1.00000000      -0.03486797      -0.00610883      -0.00897844
Pt       5.08413529      -0.05634647       0.19742862        4       0.00000000      -0.04822456      -0.04406574      -0.10570474
Ni       7.61364752      -0.03077805       0.14168727        4       1.00000000      -0.01060877      -0.09725113       0.01874112
Ni       1.26316735       2.21170775       0.13438480        4       1.00000000      -0.03718995       0.07149504       0.12384698
Pt       3.76448855       2.25581393       0.19362070        4       0.00000000      -0.05230035       0.01356762      -0.11307523
Ni       6.34204128       2.24439917       0.11460850        4       1.00000000      -0.04373750       0.06206421       0.09550634
Pt       8.87769384       2.26857556       0.13183038        4       0.00000000      -0.01651357       0.06439459      -0.17100678
Ni       2.51228053       4.43071333       0.11799265        4       1.00000000      -0.02295534       0.05427512       0.07612584
Ni       5.09279513       4.43868476       0.20361773        4       1.00000000      -0.06094454       0.09176272       0.14018672
Ni       7.58490120       4.44510245       0.10775307        4       1.00000000      -0.04983925       0.07924002       0.06181525
Ni      10.17684722       4.44735427       0.09142033        4       1.00000000       0.00978465       0.08621005       0.02942107
Ni       3.81620855       6.55726964       0.11621044        4       1.00000000      -0.00085081      -0.01195719       0.04575328
Ni       6.34388080       6.57575920       0.11361990        4       1.00000000      -0.03717792       0.02655004      -0.00499854
Ni       8.86273044       6.54142584       0.20456139        4       1.00000000      -0.04258720      -0.01036127       0.18554459
Ni      11.44594369       6.54051202       0.09359343        4       1.00000000      -0.00194465      -0.02278352       0.05869496
Ni       1.30427685       0.72781286       2.15320441        3       1.00000000      -0.03172778       0.03952204       0.03319636
Ni       3.73381947       0.70188817       2.18457975        3       1.00000000      -0.08041390      -0.05653038      -0.01107559
Ni       6.34484949       0.73991981       2.16354709        3       1.00000000       0.02457073      -0.02182039       0.00984875
Pt       8.84736962       0.67457092       2.17062404        3       0.00000000       0.03205867      -0.06870462       0.08790563
Ni       2.49926286       2.96705952       2.23253527        3       1.00000000      -0.01743173       0.06922492       0.05034248
Ni       5.07469422       2.98149610       2.14900670        3       1.00000000      -0.01961858       0.08519487       0.04885447
Ni       7.58959667       2.97901112       2.15940551        3       1.00000000       0.02019048       0.02842665       0.06707851
Ni      10.18873885       3.01331485       2.15454133        3       1.00000000       0.05432756       0.06325578       0.01680942
Ni       3.78884951       5.12514687       2.17231560        3       1.00000000      -0.05578311       0.00817749       0.03522526
Ni       6.33504773       5.15118148       2.10843599        3       1.00000000       0.03449503       0.05698547       0.07027301
Ni       8.90650057       5.11600210       2.12572136        3       1.00000000       0.04802857      -0.06460259       0.04619243
Ni      11.41833472       5.13860178       2.15161701        3       1.00000000       0.01218872      -0.00520062       0.06229139
Ni       5.09858079       7.24436729       2.16616555        3       1.00000000      -0.02431660      -0.08990941       0.04369692
Ni       7.60587503       7.32297578       2.12537370        3       1.00000000      -0.04971764       0.00099869       0.01257261
Ni      10.15728213       7.25702843       2.21311513        3       1.00000000       0.00009946      -0.09378649       0.08086199
Ni      12.66281974       7.25121608       2.14499141        3       1.00000000      -0.00767957      -0.10410146       0.01001791
Pt       0.06390697       1.49516390       4.24240064        2       0.00000000       0.05411504       0.00138758      -0.02211378
Ni       2.52428889       1.47859335       4.20487918        2       1.00000000       0.03370651      -0.00311562      -0.12534321
Pt       5.04540532       1.43792091       4.15109657        2       0.00000000       0.03455080       0.01897908      -0.13520449
Ni       7.59281132       1.44483116       4.23706509        2       1.00000000      -0.00605666      -0.05097643      -0.08383743
Ni       1.29292066       3.71084822       4.27689150        2       1.00000000       0.06593774       0.04802813      -0.08431126
Ni       3.73612267       3.73168902       4.20970011        2       1.00000000       0.03759087       0.09043306      -0.09275666
Pt       6.34430830       3.66960098       4.22087363        2       0.00000000      -0.01179677       0.02922440       0.02375451
Ni       8.92926442       3.73164961       4.19456837        2       1.00000000       0.08458659       0.08374926      -0.16329674
Ni       2.53185108       5.83572854       4.26494156        2       1.00000000       0.01085211      -0.00892051      -0.13475418
Ni       5.01206170       5.88936982       4.23241399        2       1.00000000       0.00854914      -0.03238117      -0.08312948
Pt       7.62167393       5.90132385       4.18857271        2       0.00000000       0.05788274       0.02869615       0.03312966
Ni      10.20836079       5.84639343       4.22500713        2       1.00000000       0.03642303      -0.00517468      -0.03656897
Ni       3.79508113       7.95580254       4.25098737        2       1.00000000       0.00420757      -0.06914808      -0.02490974
Ni       6.32990712       8.02742705       4.19471320        2       1.00000000      -0.03560057       0.03419065      -0.13391386
Ni       8.87908003       8.03123610       4.18541010        2       1.00000000       0.00705511      -0.02667636      -0.08349381
Ni      11.44206883       7.96771000       4.17767135        2       1.00000000       0.03945781      -0.05079225      -0.10469629
Pt      -0.01977288      -0.07248932       6.43824383        1       0.00000000      -0.06094057      -0.03564247       0.12411816
Pt       2.49498235      -0.00583237       6.37871917        1       0.00000000       0.07583991      -0.02983337      -0.02445955
Pt       5.07657742      -0.02147275       6.30947365        1       0.00000000      -0.07007880      -0.08815893       0.03877093
Pt       7.58449542      -0.03715606       6.35893081        1       0.00000000       0.04387632       0.00112217       0.03058039
Ni       1.24383707       2.26029804       6.39085920        1       1.00000000       0.01099989       0.01313049       0.01865123
Pt       3.72981811       2.28950405       6.30305786        1       0.00000000      -0.04873238       0.03020352      -0.00541018
Ni       6.32365591       2.22707262       6.38018814        1       1.00000000      -0.05703430      -0.01862585      -0.02218954
Pt       8.84657393       2.32113955       6.28216137        1       0.00000000      -0.05995115       0.03722419       0.04453491
Ni       2.47239428       4.44065113       6.35689968        1       1.00000000       0.03751944       0.03329966      -0.08725363
Pt       5.06418247       4.47990751       6.44044853        1       0.00000000      -0.01522440       0.05319983       0.19022466
Ni       7.57942590       4.40636207       6.39099381        1       1.00000000      -0.05146540      -0.01530537      -0.02137314
Ni      10.21448322       4.39858400       6.33867632        1       1.00000000       0.13496284      -0.06352590      -0.10982730
Ni       3.75601761       6.53626481       6.35613337        1       1.00000000      -0.06795268      -0.02193388      -0.12715380
Ni       6.33885213       6.56497018       6.37557901        1       1.00000000       0.05893814      -0.00559275      -0.12385622
Pt       8.91280699       6.46241583       6.43852507        1       0.00000000       0.09628921      -0.10061663       0.23254874
Ni      11.45141986       6.51676100       6.33018200        1       1.00000000       0.02110773      -0.02940168      -0.10551835
