64
Lattice="10.704436784585377 0.0028529405732224335 0.021245960486324714 5.354689111304593 9.282682399428753 0.019348791671421624 0.0 0.0 21.926276435503443" Properties=species:S:1:pos:R:3:tags:I:1:initial_magmoms:R:1:forces:R:3 unique_id=1209031b5b8d4ac6ad25a5e23a360c3f energy=-400.58708269667267 stress="0.0037693873211008446 4.3582067538404716e-05 -0.0001116185426890204 4.3582067538404716e-05 0.003921305354496427 -2.8598202655779195e-05 -0.0001116185426890204 -2.8598202655779195e-05 -0.0013840433314206597" pbc="T T T"
Pt      -0.03724467       0.00222433       0.05885402        1       0.00000000      -0.00314459       0.11313847      -0.47880753
Pt       2.68183835       0.00338294       0.07351493        1       0.00000000      -0.01296912       0.03736015      -0.51662668
Pt       5.39083488      -0.01776585       0.09892539        1       0.00000000       0.04998150      -0.22195569      -0.32585032
Ni       8.02963129       0.00050513       0.07584697        1       1.00000000       0.00101679       0.00988299       0.30385464
Pt       1.32312335       2.35764296       0.06293658        1       0.00000000      -0.08209343      -0.01949621      -0.37006175
Pt       4.02436032       2.32760234       0.08802300        1       0.00000000       0.12391928       0.05489163      -0.35375117
Pt       6.70863771       2.30348998       0.09532658        1       0.00000000      -0.00698751       0.07454808      -0.09190387
Pt       9.35991470       2.32553607       0.08065885        1       0.00000000      -0.01363904       0.01192784      -0.27856948
Pt       2.64240976       4.65289989       0.00000000        0       0.00000000      -0.05858231       0.09331884       0.11125713
Pt       5.35525972       4.63400880       0.08286250        1       0.00000000       0.02525896      -0.12851713      -0.27405484
Pt       8.06768002       4.63680845       0.01207509        0       0.00000000       0.03526898      -0.08618382       0.07955167
Ni      10.70666183       4.64577964       0.07718143        1       1.00000000       0.01694532       0.01355438       0.27593964
Pt       3.98968926       6.98395345       0.00312295        0       0.00000000      -0.09394557      -0.03622287       0.05313499
Pt       6.69293436       6.95840739       0.07910835        1       0.00000000       0.02810801      -0.01330375      -0.40754046
Pt       9.40509813       6.93969520       0.10363407        1       0.00000000       0.23094978       0.09102592      -0.39739780
Pt      12.04027455       6.96651089       0.10214206        1       0.00000000      -0.12647290       0.05105703      -0.24566460
Pt       1.34165020       0.78419149       2.32978351        2       0.00000000      -0.01074529       0.03528086       0.41317089
Pt       4.06195955       0.78549730       2.34654514        2       0.00000000       0.10671966       0.08579531       0.41109982
Pt       6.68830529       0.77634501       2.34714644        2       0.00000000       0.08202984      -0.05503184       0.29090589
Pt       9.33598455       0.78458339       2.35014793        3       0.00000000      -0.13694743       0.01241325       0.40748279
Pt       2.70679514       3.11427538       2.36520381        3       0.00000000       0.06155752       0.08781754       0.40666467
Ni       5.36474036       3.09446605       2.33347771        2       1.00000000      -0.02399011       0.00043168       0.47429868
Pt       7.98752854       3.09294535       2.41334654        3       0.00000000      -0.09224038      -0.00905305       0.61317733
Pt      10.71134389       3.12554839       2.35011823        3       0.00000000      -0.04048613       0.12067034       0.39448998
Pt       4.01150684       5.40155519       2.36307701        3       0.00000000      -0.06450695       0.06627529       0.36142611
Pt       6.68853940       5.36736094       2.37472592        3       0.00000000      -0.00181967      -0.08215216       0.47349513
Pt       9.39432692       5.42686418       2.33867113        2       0.00000000       0.01045478      -0.08756270       0.30590312
Pt      12.04353890       5.43200151       2.37434688        3       0.00000000       0.03728723      -0.04439222       0.32530849
Pt       5.34774060       7.72418297       2.34851813        2       0.00000000      -0.02899752      -0.11514077       0.39846840
Pt       8.07240075       7.73002725       2.35118790        3       0.00000000       0.04428345      -0.09464673       0.41325183
Ni      10.71434066       7.73966842       2.33113320        2       1.00000000       0.03159556      -0.01537642       0.45766618
Pt      13.35165400       7.73979300       2.35294220        3       0.00000000      -0.03000962       0.01430610       0.26997364
Pt      -0.01857306       1.58338311       4.60339429        4       0.00000000      -0.12772936       0.05057956      -0.42530373
Pt       2.67993834       1.59285628       4.60009626        4       0.00000000       0.03039209       0.03880386      -0.36371473
Pt       5.42020686       1.61720049       4.58299864        4       0.00000000       0.12273511       0.26575832      -0.45710622
Ni       8.03351710       1.56293975       4.63172464        4       1.00000000       0.00909748      -0.03701198      -0.39048781
Ni       1.35565428       3.89432682       4.63266469        4       1.00000000       0.02776999       0.12777698      -0.31695849
Pt       3.99094669       3.91070620       4.62236189        4       0.00000000      -0.21220407       0.10296349      -0.22755536
Ni       6.70372582       3.86162440       4.63567494        4       1.00000000       0.00363549       0.00826199      -0.41167155
Pt       9.34188304       3.85830633       4.64311823        4       0.00000000      -0.06636833       0.00505420      -0.23751351
Ni       2.68487813       6.17386143       4.65048843        5       1.00000000       0.03268306      -0.13190779      -0.22507923
Pt       5.31846746       6.17133350       4.64285431        4       0.00000000      -0.22059138       0.06641767      -0.25550316
Pt       8.01954408       6.13066393       4.65127616        5       0.00000000      -0.07023213      -0.21683996      -0.28566584
Pt      10.77639209       6.15598196       4.60723470        4       0.00000000       0.12310064      -0.14729381      -0.34574339
Pt       3.98312050       8.49449139       4.63923778        4       0.00000000      -0.13747852      -0.08562395      -0.25851820
Pt       6.69601648       8.50769481       4.61580007        4       0.00000000       0.00693609      -0.03032781      -0.46066796
Pt       9.40496837       8.50441034       4.59713595        4       0.00000000       0.15997429      -0.06967741      -0.48257810
Pt      12.07561568       8.51167818       4.60520895        4       0.00000000      -0.03401115       0.04338954      -0.36706885
Pt      -0.00947988      -0.02216239       6.85231092        7       0.00000000       0.03644475      -0.00427529       0.44539303
Pt       2.68169718       0.00790069       6.86262646        7       0.00000000      -0.02547391      -0.00960167       0.52017767
Pt       5.37802383       0.00087856       6.86747218        7       0.00000000       0.02962857      -0.05036087       0.29213825
Pt       8.05086006      -0.00874085       6.92627644        7       0.00000000      -0.04833509       0.13335521      -0.04401661
Pt       1.35932640       2.37783282       6.83757031        6       0.00000000      -0.03486821       0.15424356       0.30493681
Pt       4.02208435       2.36798597       6.85990908        7       0.00000000       0.08097747       0.07226061       0.31441866
Pt       6.72808783       2.36939621       6.82964856        6       0.00000000       0.04105022       0.16315436       0.15084765
Pt       9.35374908       2.35226661       6.86307065        7       0.00000000      -0.08324268      -0.08603003       0.38189797
Ni       2.68902889       4.66180362       6.85013819        7       1.00000000       0.01351872       0.06603147      -0.44373960
Pt       5.34946767       4.66750684       6.84593993        6       0.00000000       0.02656061      -0.08600597       0.15449018
Ni       8.04266864       4.64630341       6.87205821        7       1.00000000      -0.07246386      -0.02132018      -0.27292804
Pt      10.73216996       4.64634448       6.92368747        7       0.00000000       0.12141396      -0.03754908      -0.18137876
Ni       4.01915059       6.95531135       6.86263630        7       1.00000000      -0.02211039      -0.08582377      -0.36187481
Pt       6.68109796       6.93338678       6.87277683        7       0.00000000      -0.06373017      -0.00884621       0.49096124
Pt       9.37780798       6.92956579       6.87681877        7       0.00000000       0.09968068      -0.03459046       0.23834000
Pt      12.12861052       6.92399409       6.86189368        7       0.00000000       0.19544090      -0.11962491       0.02117994
