64
Lattice="9.991665607012365 -2.9850686857919523e-05 -0.004367837564660333 4.995806952053043 8.630839664233292 -0.04853684360440797 -0.0035663244375928414 -0.04370195662602877 8.534332002546154" Properties=species:S:1:pos:R:3:tags:I:1:initial_magmoms:R:1:forces:R:3 unique_id=f29c25c4397948108ab8329858070fb2 stress="0.00419736778867226 5.723412250694237e-06 7.847878688379102e-06 5.723412250694237e-06 0.00418550163233785 2.9004316022864675e-05 7.847878688379102e-06 2.9004316022864675e-05 0.003647793363799251" energy=-383.06060216515755 pbc="T T T"
Ni       0.02580749      -0.04000122       0.11325692        4       1.00000000      -0.01224609      -0.02954597       0.04684404
Ni       2.44014909       0.00043432       0.10755601        4       1.00000000      -0.02795456      -0.01437447       0.02420231
Pt       4.94563280       0.04451683       0.07670144        4       0.00000000      -0.00041867      -0.02776396      -0.14549669
Ni       7.53221906      -0.02232958       0.12597152        4       1.00000000       0.00335510      -0.05788937       0.08809101
Ni       1.29028091       2.14006659       0.10021906        4       1.00000000      -0.00983711      -0.07484725       0.03391458
Ni       3.71120523       2.19182840       0.10146506        4       1.00000000      -0.01292454      -0.01306616       0.07425498
Ni       6.22796897       2.20235705       0.20217027        4       1.00000000      -0.02286663       0.02494289       0.13037826
Pt       8.75638913       2.13857069       0.20077542        4       0.00000000      -0.01416162      -0.05388196      -0.14827110
Ni       2.49765448       4.23973203       0.04194695        4       1.00000000      -0.03690586      -0.10323826       0.00389139
Ni       4.99420103       4.29908288       0.02725719        4       1.00000000       0.00113944      -0.03062915      -0.02848734
Ni       7.49696808       4.33467626       0.04601294        4       1.00000000       0.02783889      -0.04753774      -0.03221742
Ni       9.99748123       4.28794756       0.08892388        4       1.00000000       0.02788819      -0.09506538       0.06627997
Ni       3.80737202       6.48319886       0.03861033        4       1.00000000       0.05559886      -0.03659753       0.00993830
Ni       6.24676183       6.49153493       0.03131812        4       1.00000000       0.01198991      -0.01023885      -0.00325383
Ni       8.68457175       6.44230012       0.06196616        4       1.00000000      -0.01424023      -0.01021431      -0.00388434
Pt      11.27237056       6.40419215       0.03062419        4       0.00000000       0.00657508      -0.05506101      -0.08837886
Ni       1.25227069       0.70416650       2.15573523        3       1.00000000       0.00843814      -0.02041070       0.02765348
Ni       3.70697795       0.72080506       2.19499082        3       1.00000000      -0.00135574      -0.01783265      -0.01288557
Ni       6.25301749       0.72776027       2.15464104        3       1.00000000      -0.03674323      -0.01895482       0.00806707
Ni       8.76033234       0.67312838       2.21332633        3       1.00000000       0.01785004      -0.03079519       0.12547430
Ni       2.47685734       2.81401521       2.15787932        3       1.00000000       0.00753513      -0.02575552       0.08861951
Ni       4.96866905       2.81250970       2.15982619        3       1.00000000      -0.05401667       0.02709042       0.10555967
Ni       7.46646833       2.83278729       2.17386958        3       1.00000000      -0.04125685       0.01666793       0.13449949
Ni      10.06210007       2.85437046       2.16326413        3       1.00000000       0.07393308      -0.02276909       0.09419715
Pt       3.68889645       5.01420662       2.13656223        3       0.00000000       0.02583029      -0.01948617      -0.02684303
Pt       6.29457339       5.04373124       2.13211655        3       0.00000000      -0.02092207      -0.01250991      -0.00173382
Ni       8.78764424       5.05018879       2.07981902        3       1.00000000       0.00539898      -0.00955861       0.00822653
Ni      11.19583707       4.99498046       2.17664765        3       1.00000000      -0.01133804       0.01282837       0.06917367
Ni       5.00984231       7.24093610       2.12549450        3       1.00000000       0.01720633      -0.02082145       0.05366711
Ni       7.50681419       7.23756222       2.11787769        3       1.00000000      -0.01309294       0.02061065       0.00243207
Ni       9.94866156       7.17156157       2.12626194        3       1.00000000      -0.00687904       0.02668167      -0.08359547
Ni      12.50828593       7.22083157       2.11009015        3       1.00000000       0.02128829      -0.01428932      -0.00742972
Ni       0.06595252       1.36761205       4.18455614        2       1.00000000       0.05181682      -0.00167979      -0.01488991
Ni       2.49290689       1.40815007       4.22997150        2       1.00000000      -0.00234728      -0.02350499      -0.03313285
Ni       4.93252573       1.43743542       4.19007839        2       1.00000000      -0.00469573       0.01163821      -0.00287039
Ni       7.49261157       1.40615149       4.17950865        2       1.00000000      -0.02761587       0.02769094       0.03065911
Ni       1.29646543       3.56532829       4.23517877        2       1.00000000       0.00952406       0.00116242       0.00759715
Ni       3.73588387       3.55313132       4.25372209        2       1.00000000      -0.01495212      -0.00652402      -0.01995573
Ni       6.19336208       3.58926333       4.22381534        2       1.00000000      -0.02819824       0.00928304       0.02754994
Pt       8.75092391       3.62334911       4.16048175        2       0.00000000       0.00699330       0.08062022      -0.03358993
Ni       2.50984506       5.70091965       4.24937524        2       1.00000000       0.00897272       0.00705264      -0.03529311
Ni       4.99429438       5.75873790       4.25921538        2       1.00000000       0.00324490       0.03408889      -0.04696540
Ni       7.48145764       5.80263302       4.24254033        2       1.00000000       0.01659037       0.04114167      -0.04353829
Ni       9.98577264       5.75036018       4.20209435        2       1.00000000      -0.03407225       0.04601928      -0.08064819
Ni       3.79458663       7.88233968       4.20611718        2       1.00000000       0.00630909       0.00856115      -0.00919796
Ni       6.25165740       7.89290389       4.19147347        2       1.00000000       0.01256868       0.01111973      -0.06869048
Ni       8.68757793       7.89640507       4.18179211        2       1.00000000      -0.00890317       0.02444286      -0.10556495
Pt      11.24178092       7.89221094       4.16837373        2       0.00000000       0.03029430       0.04046472      -0.09609569
Ni       0.04855061      -0.09255664       6.28993769        1       1.00000000       0.05578807      -0.01625614      -0.02795545
Ni       2.48626671      -0.03474022       6.28460573        1       1.00000000      -0.00956821       0.00599980      -0.04544998
Ni       4.92491127      -0.05852013       6.21068230        1       1.00000000      -0.08527893       0.03246445      -0.11196222
Ni       7.50895975      -0.09296919       6.31609207        1       1.00000000       0.01810634       0.00850070       0.03298613
Ni       1.31008516       2.12659841       6.27816749        1       1.00000000       0.03265522       0.01923562      -0.02242951
Ni       3.68120167       2.13737239       6.27608512        1       1.00000000      -0.02409873       0.02978663      -0.01655410
Pt       6.16762805       2.13989148       6.31875699        1       0.00000000       0.00254968       0.02328348       0.15338708
Pt       8.81743632       2.09022973       6.23967180        1       0.00000000       0.01313233      -0.03389775       0.24844733
Ni       2.50490957       4.29013673       6.26137895        1       1.00000000       0.01850941       0.04850496      -0.02253345
Ni       4.95459997       4.34725740       6.25644796        1       1.00000000      -0.02727128       0.06642903      -0.06384974
Ni       7.47532430       4.36784654       6.27514626        1       1.00000000      -0.02548501       0.04566184      -0.04966125
Ni      10.03245663       4.34193949       6.28659529        1       1.00000000       0.03251218       0.05861134       0.01670171
Ni       3.75146041       6.44198499       6.25338953        1       1.00000000      -0.01065895       0.03749247      -0.02427342
Ni       6.24127784       6.45649730       6.25332062        1       1.00000000       0.01121041       0.03321574      -0.04221793
Ni       8.72739094       6.45549266       6.24847247        1       1.00000000       0.00274684       0.04613946      -0.04583419
Ni      11.24263161       6.41890556       6.17988581        1       1.00000000      -0.00508482       0.02756425      -0.06706205
