64
Lattice="10.450798572471813 0.026048193551921294 0.010004644796517515 5.247957683574571 9.016235571369945 -0.03872977594715083 0.0 0.0 21.691813707719398" Properties=species:S:1:pos:R:3:tags:I:1:initial_magmoms:R:1:forces:R:3 unique_id=8de61b21d25546b3b583d538a450020c stress="0.006011978038275897 0.0002145728633025746 0.00037737194024793663 0.0002145728633025746 0.005333890238721077 -0.00020826956392351256 0.00037737194024793663 -0.00020826956392351256 -0.002852863941142942" energy=-381.3735286658512 pbc="T T T"
Ni      -0.06461339      -0.02136371       0.15128673        2       1.00000000      -0.14380206      -0.05477849      -0.16748852
Ni       2.64851537      -0.02979226       0.14488204        1       1.00000000       0.10235697      -0.02530742      -0.24509961
Ni       5.25339257      -0.02475989       0.13005693        1       1.00000000       0.13938476       0.07425869      -0.30069380
Ni       7.86472664      -0.03380389       0.09551063        1       1.00000000      -0.03751814      -0.04098690       0.48241494
Pt       1.28612748       2.27788830       0.09057936        1       0.00000000       0.21236262       0.05036907      -1.09394817
Pt       3.92985248       2.31377445       0.10748022        1       0.00000000       0.01903874       0.14632114      -0.72606864
Pt       6.57112247       2.18794258       0.10504195        1       0.00000000      -0.09731861      -0.12253468      -0.27207431
Ni       9.14348714       2.23243752       0.12813760        1       1.00000000      -0.02523317      -0.13094941      -0.07157930
Ni       2.63010450       4.55024112       0.00434012        0       1.00000000       0.02601570      -0.03754044       0.17679626
Ni       5.24949851       4.52264943       0.10198342        1       1.00000000       0.18201217      -0.02104612      -0.10591522
Pt       7.92534563       4.53714911       0.02189556        0       0.00000000      -0.07169976       0.05830610       0.26285525
Ni      10.47652298       4.57681595       0.00406519        0       1.00000000       0.01447083       0.08075303       0.22568139
Ni       3.90572244       6.79003435       0.13426824        1       1.00000000      -0.01184913       0.09077349      -0.11459348
Pt       6.52877870       6.81141391       0.14743039        1       0.00000000      -0.04637030      -0.02417368      -0.37196023
Ni       9.18840962       6.78123158       0.01749999        0       1.00000000      -0.03684673      -0.03740859       0.34860802
Ni      11.79886791       6.79357533       0.00000000        0       1.00000000       0.09754440       0.08517483       0.35108638
Pt       1.27599584       0.66519041       2.16005755        4       0.00000000      -0.04140987      -0.14111626       0.22940545
Pt       3.99384054       0.77244856       2.21072366        4       0.00000000       0.06722207      -0.06562023       0.22810196
Ni       6.57848196       0.73744475       2.23325084        4       1.00000000       0.09430587      -0.01740176       0.15295711
Ni       9.08893991       0.72377653       2.16922154        4       1.00000000      -0.11903873       0.00233167       0.06075021
Ni       2.63871027       3.02309417       2.21886292        4       1.00000000       0.01729602       0.01240173       0.28640873
Ni       5.24293291       3.01646191       2.26268901        5       1.00000000       0.03628516       0.03794152       0.32288665
Pt       7.78207669       3.01429452       2.31914930        5       0.00000000      -0.04733023       0.04679470       0.20937577
Pt      10.38284260       3.05753851       2.19126641        4       0.00000000      -0.23987704       0.09276459       0.12872520
Pt       3.97729297       5.23246208       2.12477054        3       0.00000000       0.05084712      -0.02712997       0.05164718
Ni       6.58668392       5.26134576       2.20789042        4       1.00000000       0.08696701      -0.04154902       0.19694665
Ni       9.12050542       5.29656175       2.23950162        4       1.00000000      -0.10144344       0.01146288       0.15778720
Pt      11.78246306       5.28334981       2.10768964        3       0.00000000       0.07860127      -0.05853645      -0.00472984
Ni       5.20170364       7.49920731       2.15941320        4       1.00000000      -0.08136261      -0.03128433       0.18492802
Ni       7.87756493       7.44814504       2.18687459        4       1.00000000       0.08477902      -0.09914886       0.18383939
Pt      10.47273760       7.48840289       2.09795621        3       0.00000000      -0.03839924       0.01895856       0.01145054
Ni      13.10123984       7.57029507       2.12914938        3       1.00000000      -0.03915323       0.04445505      -0.00614214
Pt      -0.09073292       1.52336163       4.36260951        7       0.00000000      -0.08335512       0.01869513      -0.18885177
Pt       2.66765529       1.53713061       4.33974121        6       0.00000000      -0.05581429      -0.11085823      -0.24727014
Ni       5.27579329       1.54357240       4.35911923        7       1.00000000       0.03275264       0.10622276      -0.33033807
Ni       7.81076096       1.53000989       4.37412514        7       1.00000000      -0.03525107       0.00660671      -0.21376719
Pt       1.26588752       3.80587743       4.40204286        7       0.00000000      -0.10363622       0.04908544      -0.14073853
Ni       3.97166260       3.72698608       4.35268589        7       1.00000000       0.06220798      -0.01570100      -0.29220102
Ni       6.56768949       3.72819139       4.39207009        7       1.00000000       0.00400385      -0.01197699      -0.17168436
Ni       9.10345913       3.82328592       4.42314216        7       1.00000000      -0.05570125       0.00127964      -0.14319766
Pt       2.60686477       5.97659393       4.40602305        7       0.00000000       0.06183510      -0.00726174      -0.05956895
Pt       5.31137713       5.89785430       4.30510904        6       0.00000000      -0.00668567      -0.09488219      -0.17034429
Ni       7.91290064       5.91592366       4.36304343        7       1.00000000       0.03890212      -0.09067737      -0.22738770
Ni      10.41561029       5.97818687       4.43480814        7       1.00000000      -0.01766489       0.02841238      -0.11014092
Pt       3.91534870       8.25632794       4.28451316        6       0.00000000       0.00911309      -0.02823581      -0.12485814
Pt       6.57594136       8.19227264       4.31311751        6       0.00000000      -0.02814013       0.10903133      -0.21516321
Pt       9.18378460       8.15703716       4.37284328        7       0.00000000      -0.01410481       0.00699745      -0.08740246
Pt      11.78042215       8.31871136       4.34738762        6       0.00000000      -0.02577961       0.04220952      -0.04215200
Pt      -0.04923249      -0.02867065       6.69181371       10       0.00000000       0.12695453       0.08798942       0.19106252
Pt       2.64715609      -0.05474753       6.69004479       10       0.00000000      -0.02396341       0.05113496       0.33786217
Pt       5.28939501      -0.11752778       6.68754433       10       0.00000000      -0.07346974       0.16520607       0.08329209
Ni       7.83384303      -0.00831971       6.61628970        9       1.00000000       0.03949115       0.03092187      -0.23639409
Pt       1.30168541       2.31782169       6.55876325        9       0.00000000      -0.06413859      -0.13746009       1.04342401
Pt       3.93680792       2.26600917       6.51797831        8       0.00000000       0.21661105      -0.05809041       0.72129408
Pt       6.57080642       2.22385431       6.47491450        8       0.00000000      -0.08678503       0.01774545       0.45934462
Pt       9.12794642       2.34152934       6.63738628        9       0.00000000      -0.00740286       0.17232779       0.01179203
Ni       2.58413924       4.51207934       6.58885967        9       1.00000000       0.00928762       0.01407843      -0.14870281
Pt       5.23860083       4.49157436       6.59796463        9       0.00000000       0.02069013      -0.06239269       0.11019722
Ni       7.90726682       4.51826305       6.47465342        8       1.00000000      -0.00630241       0.03050113      -0.03510469
Ni      10.44146661       4.58533253       6.57418880        9       1.00000000      -0.07726086      -0.03199721      -0.33712105
Pt       3.82568569       6.73544713       6.68462231       10       0.00000000       0.11893686      -0.02699833      -0.01372991
Pt       6.63973639       6.67626312       6.54539890        8       0.00000000      -0.03646764      -0.04814073       0.39244247
Ni       9.21352077       6.66823717       6.56474163        9       1.00000000      -0.01415180      -0.00257950      -0.28126378
Ni      11.73490879       6.69628652       6.59204648        9       1.00000000      -0.05554815      -0.08774764      -0.30568753
