64
Lattice="10.188359261396428 0.05027338047461458 -0.018820708133079244 5.137717655323352 8.832263250762198 -0.022779216759115234 0.0 0.0 21.490717956888787" Properties=species:S:1:pos:R:3:tags:I:1:initial_magmoms:R:1:forces:R:3 unique_id=fcdeae5883dd4a22b56d3e071d2ce633 stress="0.0017692647213274435 2.3763867948679626e-05 8.64382272372398e-05 2.3763867948679626e-05 0.0013531740423278014 7.9914947705172e-05 8.64382272372398e-05 7.9914947705172e-05 -0.005229526688944875" energy=-370.55534901108155 pbc="T T T"
Ni       0.03485895      -0.04423925       0.14808793        1       1.00000000       0.08482923      -0.03084192      -0.42188781
Ni       2.50475074       0.02752720       0.10945991        1       1.00000000       0.06616051       0.15930087      -0.43276379
Pt       5.12353842      -0.03556022       0.16059405        2       0.00000000      -0.08774141       0.02041591      -0.86212766
Ni       7.65090361      -0.01007545       0.11472094        1       1.00000000      -0.05434896      -0.07378025      -0.40347055
Ni       1.27921404       2.23273688       0.06793563        1       1.00000000      -0.03300189       0.07246424       0.26087486
Pt       3.79910119       2.29212378       0.13444080        1       0.00000000       0.01528178      -0.03462262      -0.66791505
Ni       6.38161494       2.27699137       0.05865419        1       1.00000000      -0.02565826      -0.00263433       0.20117812
Pt       8.92761194       2.31721598       0.07070499        1       0.00000000       0.04876934       0.18014505      -0.93286458
Ni       2.54407687       4.46256063       0.05092154        1       1.00000000       0.04705372      -0.01619107       0.36453619
Ni       5.13239961       4.47274052       0.04478661        0       1.00000000      -0.10192898       0.01058556       0.29108745
Ni       7.63079061       4.48161425       0.04560956        0       1.00000000       0.05754475       0.04630335       0.27848719
Ni      10.24360702       4.49069026       0.04071481        0       1.00000000      -0.01240254      -0.02650303       0.35754067
Ni       3.85012715       6.59915099       0.04679310        0       1.00000000      -0.00170428       0.00036562       0.30229990
Ni       6.35745684       6.60525850       0.00000000        0       1.00000000      -0.06749275      -0.00947856       0.15092672
Ni       8.96598459       6.58214598       0.11363162        1       1.00000000       0.14698450      -0.07528759      -0.47809671
Ni      11.52300021       6.60898538       0.04089185        0       1.00000000      -0.02183802       0.06060879       0.29357238
Ni       1.30243375       0.78529441       2.11339923        4       1.00000000       0.01029985       0.16085472       0.10067177
Ni       3.78325063       0.78202143       2.13454004        4       1.00000000      -0.14165535       0.04322177       0.21949397
Ni       6.37944602       0.77203548       2.14009442        4       1.00000000       0.02232822       0.08123684       0.12373907
Pt       8.89511736       0.75799263       2.10548478        4       0.00000000       0.03678656      -0.10050250       0.14900916
Ni       2.52286879       2.98607986       2.18655832        5       1.00000000      -0.02657075       0.08908104       0.09785193
Ni       5.11671533       3.01284623       2.10875225        4       1.00000000       0.03542566       0.06279667       0.04478387
Ni       7.62820316       3.01636197       2.13377839        4       1.00000000      -0.02709022       0.04906002       0.09338049
Ni      10.24443088       3.05289742       2.12019933        4       1.00000000       0.07616041       0.07184849       0.10564357
Ni       3.84217413       5.13939235       2.09084169        4       1.00000000      -0.05806727      -0.07068520      -0.01492176
Ni       6.35131380       5.14193412       2.06494776        4       1.00000000      -0.04908047      -0.03299673       0.01804529
Ni       8.97261173       5.13289930       2.09485891        4       1.00000000       0.00192044      -0.08204489       0.05156475
Ni      11.47523443       5.17523981       2.08170430        4       1.00000000       0.00235321      -0.05825976       0.03753715
Ni       5.10495669       7.29001319       2.08372834        4       1.00000000      -0.14895907      -0.10985228       0.06209159
Pt       7.62035187       7.35583844       2.03002413        3       0.00000000      -0.06975942      -0.02409230      -0.03560206
Ni      10.27907850       7.30967887       2.13431129        4       1.00000000       0.07168749      -0.17393847       0.16096418
Ni      12.73805032       7.33906452       2.05948308        4       1.00000000       0.00685940      -0.08333128       0.03997929
Pt       0.08087482       1.52313847       4.22420009        6       0.00000000       0.11462965      -0.09687142      -0.03188799
Ni       2.54872906       1.52820095       4.21252269        6       1.00000000       0.05124683       0.00741878      -0.24319466
Pt       5.10652372       1.50198734       4.15539795        6       0.00000000       0.10603567      -0.01780578      -0.14489300
Ni       7.64015195       1.50085565       4.23787576        6       1.00000000       0.00254375      -0.08000165      -0.22442560
Ni       1.28901686       3.67948629       4.26510968        7       1.00000000       0.04274428      -0.01665312      -0.12673385
Ni       3.80329317       3.70726558       4.20219974        6       1.00000000      -0.00776753       0.02418605      -0.25013778
Pt       6.36964001       3.69901737       4.25309757        7       0.00000000       0.01943246      -0.06479810      -0.01899741
Ni       8.97401005       3.75057527       4.19258589        6       1.00000000       0.09264132       0.03627440      -0.24947499
Pt       2.53158853       5.80887671       4.24075864        6       0.00000000      -0.03078469      -0.02863720      -0.05734592
Ni       5.09983666       5.86605180       4.25669772        7       1.00000000      -0.01964375      -0.06976908      -0.16189022
Pt       7.64894695       5.87759184       4.23146550        6       0.00000000      -0.01835546       0.02747965      -0.02041791
Ni      10.22852038       5.85967296       4.21768475        6       1.00000000      -0.00876008      -0.03739485      -0.17980998
Pt       3.86554276       8.02497209       4.21526298        6       0.00000000       0.05502548       0.05232571      -0.04171370
Ni       6.39197799       8.08618082       4.22019875        6       1.00000000       0.04053388      -0.00556005      -0.17433493
Pt       8.96284655       8.09743560       4.16235074        6       0.00000000      -0.04364389      -0.02978786      -0.18573466
Ni      11.50435360       8.08727907       4.17714137        6       1.00000000       0.03406915      -0.07399103      -0.24749945
Pt      -0.00090359      -0.06968758       6.49071796       10       0.00000000      -0.16355398       0.10154968       0.35187710
Pt       2.51373096       0.01469251       6.42879715        9       0.00000000       0.16857702       0.10142919       0.31807504
Pt       5.11119335       0.01088936       6.36961494        9       0.00000000      -0.11246486      -0.07637782       1.00424897
Pt       7.62501345      -0.01470643       6.43745036        9       0.00000000       0.09966692       0.14335831       0.34159624
Ni       1.27288885       2.27199547       6.39887491        9       1.00000000       0.03902464       0.03276606      -0.04905840
Pt       3.79928146       2.35425985       6.32880343        8       0.00000000      -0.12535245      -0.05564016       0.66403673
Ni       6.36084374       2.27968473       6.40268616        9       1.00000000       0.02054989      -0.01125254       0.03765340
Pt       8.89716213       2.35365314       6.29769398        8       0.00000000      -0.14394210      -0.11671948       0.94177561
Ni       2.52549478       4.45229553       6.40216771        9       1.00000000       0.03872886      -0.04714645      -0.20063031
Ni       5.11054564       4.48033355       6.39885387        9       1.00000000      -0.09912700       0.01766461      -0.21827451
Ni       7.58793000       4.43994600       6.41282441        9       1.00000000      -0.01340063      -0.02164399      -0.03123724
Ni      10.27568447       4.43790898       6.36111422        9       1.00000000       0.04063445       0.00430460      -0.24432657
Ni       3.84801510       6.52774469       6.41097803        9       1.00000000      -0.00502591      -0.01824362      -0.17567119
Ni       6.35241124       6.56273607       6.38554655        9       1.00000000      -0.03221889       0.05722455      -0.09966921
Pt       8.96322820       6.51020309       6.46668433       10       0.00000000       0.11369149       0.08460196       0.30490952
Ni      11.51426059       6.58743571       6.38286552        9       1.00000000      -0.05887998       0.07446449      -0.14242269
