64
Lattice="10.786267641771099 0.0008718289563885434 0.0007296551979338292 5.393888846909537 9.338269199819884 -0.008780317789873121 0.0005957609743691139 -0.00862212575918099 9.449844128481317" Properties=species:S:1:pos:R:3:tags:I:1:initial_magmoms:R:1:forces:R:3 unique_id=ad0acec47b7448d7acb62f32d2940815 stress="-0.00012251424435450603 -1.7323883477374378e-08 -9.847194841786435e-07 -1.7323883477374378e-08 -0.00012111526007184403 -1.3343160910906106e-07 -9.847194841786435e-07 -1.3343160910906106e-07 -6.494185726362706e-05" energy=-431.9912219602135 pbc="T T T"
Pt       0.01417682      -0.02853690       0.09704164        4       0.00000000       0.00977633      -0.06065526       0.09804842
Ni       2.70034451      -0.00082688       0.07722522        4       1.00000000       0.00767266      -0.01160336       0.32426636
Pt       5.36421399      -0.00199555       0.01913170        4       0.00000000      -0.03942934      -0.01592164      -0.05121154
Pt       8.10241571      -0.02856952       0.09143093        4       0.00000000       0.03240233      -0.07021273       0.09987802
Pt       1.36665229       2.30720391       0.09360150        4       0.00000000       0.05237651      -0.05713565       0.10264578
Pt       4.03002651       2.30883506       0.08885081        4       0.00000000      -0.03034693      -0.03882169       0.08023531
Pt       6.73393425       2.33049260       0.08763735        4       0.00000000      -0.05123697      -0.01450168       0.11285241
Pt       9.44237435       2.32685570       0.08918924        4       0.00000000       0.02195164      -0.04209443       0.11611512
Pt       2.72351543       4.69853771       0.10979441        4       0.00000000       0.06590478       0.08205996       0.13704632
Pt       5.36606910       4.70598003       0.10950890        4       0.00000000      -0.07184497       0.12447186       0.13157437
Pt       8.08238617       4.67731229       0.08964534        4       0.00000000      -0.05227145       0.04276891       0.12385057
Pt      10.79486222       4.67263063       0.08973802        4       0.00000000       0.05357799       0.01481738       0.11799044
Ni       4.04796369       7.00065827       0.08331514        4       1.00000000       0.01967364      -0.01262116       0.34566661
Pt       6.72559080       7.02841823       0.09022803        4       0.00000000      -0.01342908       0.03906573       0.06598074
Pt       9.42446772       7.03545996       0.08086080        4       0.00000000      -0.03285736       0.07477736       0.08219582
Pt      12.16003160       7.00774719       0.08445247        4       0.00000000       0.00640907       0.01725221       0.07124277
Pt       1.35962715       0.76561110       2.35394735        3       0.00000000       0.02111536      -0.04074690       0.02965403
Pt       4.03810707       0.77273271       2.35847416        3       0.00000000       0.02462253      -0.01004786       0.03431656
Pt       6.73518371       0.77097248       2.38313483        3       0.00000000      -0.03942937      -0.04600205       0.09191705
Pt       9.44126073       0.76701405       2.37990943        3       0.00000000       0.00605210      -0.04990264       0.09912084
Pt       2.71599903       3.13951413       2.37690705        3       0.00000000       0.04565154       0.04970504       0.08393557
Pt       5.37320679       3.13937972       2.37625473        3       0.00000000      -0.04318809       0.02693422       0.08327769
Pt       8.08372110       3.11359014       2.38133394        3       0.00000000      -0.04446139      -0.00379211       0.08323183
Pt      10.79426308       3.11091724       2.38047644        3       0.00000000       0.04402182      -0.00997681       0.08831374
Ni       4.04498642       5.45124892       2.35390026        3       1.00000000       0.00342155       0.01403873       0.01229135
Pt       6.70743224       5.45023030       2.37875558        3       0.00000000      -0.04344165       0.00959751       0.12060533
Pt       9.43627518       5.45076286       2.37734311        3       0.00000000      -0.00802821       0.05130013       0.08744225
Pt      12.17219018       5.44865661       2.37848412        3       0.00000000       0.04565522       0.00611878       0.11147437
Pt       5.36531631       7.74257594       2.34760188        3       0.00000000      -0.06144885      -0.09775643       0.02076566
Pt       8.08169181       7.79137589       2.34712362        3       0.00000000      -0.03566867       0.01356122       0.05260395
Pt      10.79439226       7.78361334       2.37740171        3       0.00000000       0.05738373       0.02193749       0.11336872
Pt      13.51534986       7.74036177       2.34631782        3       0.00000000       0.05063516      -0.08953465       0.01132592
Pt       0.00070174       1.55021108       4.70306152        2       0.00000000       0.01718622      -0.04063521      -0.12180579
Pt       2.70053558       1.54893089       4.69454596        2       0.00000000       0.00344779      -0.01646084      -0.16242606
Pt       5.39193254       1.54128409       4.72543048        2       0.00000000      -0.02328583      -0.00595857      -0.10043759
Pt       8.08766853       1.54958889       4.70229492        2       0.00000000       0.00079669      -0.02497570      -0.13070697
Pt       1.35219655       3.88772773       4.69771183        2       0.00000000       0.02780470       0.00220008      -0.08496214
Pt       4.04719561       3.89387668       4.67924028        2       0.00000000       0.00451017       0.02714031      -0.14779809
Pt       6.73668224       3.88591148       4.69764199        2       0.00000000      -0.03000159      -0.00293776      -0.09423251
Pt       9.43859222       3.88762075       4.69642584        2       0.00000000      -0.00574117       0.00983933      -0.12608693
Pt       2.70906373       6.22154933       4.67085673        2       0.00000000       0.05528698       0.01731186      -0.16575440
Pt       5.38103286       6.21914126       4.66983424        2       0.00000000      -0.05710585       0.01097994      -0.16407557
Pt       8.08804624       6.22547824       4.69831645        2       0.00000000      -0.02467420       0.04207377      -0.12597996
Pt      10.79034805       6.22509392       4.69781397        2       0.00000000       0.02234765       0.01557974      -0.12524942
Pt       4.04269419       8.54758671       4.69119922        2       0.00000000      -0.00815647      -0.04003910      -0.09877808
Pt       6.74901465       8.55565812       4.69201907        2       0.00000000       0.02470269      -0.00406583      -0.14400114
Pt       9.44586070       8.56571046       4.71725449        2       0.00000000      -0.02664422       0.02988533      -0.07602929
Pt      12.12343385       8.56128442       4.72255247        2       0.00000000      -0.01166531      -0.00850824      -0.07125583
Pt       0.00214139      -0.00933810       7.00750665        1       0.00000000       0.00888887      -0.01476485      -0.06656358
Pt       2.72994415      -0.00553233       7.06988868        1       0.00000000       0.06880483       0.00640787       0.06296656
Ni       5.38894259      -0.00497928       7.00944087        1       1.00000000      -0.01913646       0.00436112      -0.31843688
Pt       8.06117745      -0.00799072       7.00209318        1       0.00000000      -0.05095892      -0.00632450      -0.06045213
Pt       1.35666814       2.32286261       7.00123496        1       0.00000000       0.04759415      -0.02131031      -0.07345449
Pt       4.05941840       2.29600250       7.00178006        1       0.00000000       0.02436692      -0.05595151      -0.07495696
Pt       6.72598028       2.29973686       6.99478572        1       0.00000000      -0.04080094      -0.06449839      -0.06874962
Pt       9.43352149       2.32624254       6.99806179        1       0.00000000      -0.01990456      -0.01587845      -0.08023880
Pt       2.70005096       4.66834501       7.00099582        1       0.00000000       0.01501415       0.02677440      -0.04475839
Pt       5.39080966       4.66371952       7.00051732        1       0.00000000      -0.01864750      -0.00374872      -0.05469066
Pt       8.09085461       4.66336839       6.99463528        1       0.00000000      -0.00802394       0.01042155      -0.07680871
Pt      10.78704028       4.66992579       6.99480830        1       0.00000000       0.00686356       0.03639406      -0.07880651
Pt       4.04161028       6.99873340       7.06254365        1       0.00000000      -0.02461226       0.01007668       0.03839220
Pt       6.74468919       7.00287857       7.00323226        1       0.00000000       0.01104184       0.02491739      -0.08661758
Pt       9.45518400       7.03052410       6.99359226        1       0.00000000       0.04477951       0.08162848      -0.08521072
Pt      12.12254915       7.02561765       6.99758810        1       0.00000000      -0.01529911       0.05298660      -0.07405635
