64
Lattice="10.468249381125625 0.04450560855873561 0.003960132218193153 5.272667678185562 9.078909615466765 -0.04635210767782185 0.0032334344161765957 -0.04556801044562271 8.973319019556579" Properties=species:S:1:pos:R:3:tags:I:1:initial_magmoms:R:1:forces:R:3 unique_id=a89cb9086c5a4a5899841130312a83e6 stress="0.00024887388385713 3.7172942932104524e-06 -5.372560509465649e-06 3.7172942932104524e-06 0.0002496213520507967 1.977875218928464e-06 -5.372560509465649e-06 1.977875218928464e-06 0.0002128812994209306" energy=-406.5531473883056 pbc="T T T"
Ni      -0.06276749      -0.02430301       0.18153829        4       1.00000000      -0.18034137      -0.05957787       0.10257051
Ni       2.65016450      -0.02747316       0.17791614        4       1.00000000       0.12583753      -0.08093502       0.15122951
Ni       5.26372828      -0.01631330       0.16130480        4       1.00000000       0.09016019       0.00628838       0.11067633
Ni       7.87682280      -0.02100779       0.12581349        4       1.00000000       0.01241976      -0.11637159       0.07868112
Pt       1.29058352       2.28405469       0.12305175        4       0.00000000       0.00116012      -0.00228235      -0.15389433
Pt       3.94272657       2.31964709       0.15259846        4       0.00000000       0.03273151       0.06932495      -0.09802608
Pt       6.58911530       2.21143156       0.13442909        4       0.00000000       0.05402721      -0.11410475      -0.09222987
Ni       9.16278567       2.26098692       0.15369595        4       1.00000000      -0.05476648      -0.13414534       0.12270937
Ni       2.64398348       4.56339698       0.13200833        4       1.00000000       0.06492262      -0.00772373       0.05459109
Ni       5.27230379       4.55267858       0.13551934        4       1.00000000       0.20308923      -0.04613699       0.09051313
Pt       7.94388008       4.57524868       0.05205731        4       0.00000000       0.07316142      -0.03601377      -0.12897279
Ni      10.49620993       4.61564709       0.03545092        4       1.00000000       0.02820800       0.09801590      -0.05671590
Ni       3.92805284       6.84266987       0.15282735        4       1.00000000      -0.02267170       0.07400825       0.11556267
Pt       6.55549447       6.85946227       0.17485377        4       0.00000000      -0.00226769      -0.00210644       0.00398183
Ni       9.21386976       6.83254858       0.04359096        4       1.00000000       0.00264583      -0.01560269      -0.00834424
Ni      11.82511385       6.85605119       0.03149378        4       1.00000000       0.09117134       0.03389318      -0.05864526
Pt       1.27334055       0.66519404       2.19320434        3       0.00000000      -0.02959350      -0.04418314       0.06697831
Pt       3.99510363       0.77509938       2.25124796        3       0.00000000       0.03707210       0.00007859       0.08626115
Ni       6.58985580       0.75373444       2.26473523        3       1.00000000       0.06355862      -0.03082717       0.00195870
Ni       9.10352136       0.74477242       2.20051912        3       1.00000000      -0.11951835       0.00296669      -0.02783064
Ni       2.63105277       3.03430726       2.23741426        3       1.00000000      -0.06422573       0.00462191       0.03412618
Ni       5.27381693       3.02991669       2.25886195        3       1.00000000       0.05359381      -0.00228319       0.00087317
Pt       7.80509032       3.04225335       2.34982387        3       0.00000000      -0.02693331       0.03819816      -0.01076287
Pt      10.40458750       3.09029953       2.21768295        3       0.00000000      -0.10070769       0.06001808       0.01169662
Pt       4.00230091       5.30887282       2.13436632        3       0.00000000       0.04408978      -0.01036955       0.06063923
Ni       6.61123819       5.30559402       2.23910916        3       1.00000000       0.11003451       0.00974133       0.00074743
Ni       9.14467410       5.34256785       2.26985317        3       1.00000000      -0.04728186       0.01993900       0.06523665
Pt      11.79136498       5.33806800       2.14197395        3       0.00000000       0.00145690      -0.01435056      -0.00182057
Ni       5.22660034       7.56045528       2.18573434        3       1.00000000      -0.07432165       0.01425351       0.02274093
Ni       7.90156228       7.50701971       2.21787741        3       1.00000000       0.04211270      -0.08997187       0.06396573
Pt      10.50092560       7.55320160       2.12618820        3       0.00000000      -0.01599801      -0.02325638       0.01768524
Ni      13.13206166       7.64261906       2.15389051        3       1.00000000      -0.05525335       0.02587386      -0.05124260
Pt      -0.10564509       1.52741748       4.39784387        2       0.00000000      -0.12595931       0.03526530      -0.04748034
Pt       2.64121157       1.49919838       4.39294217        2       0.00000000      -0.07221073      -0.05624049      -0.06878231
Ni       5.29770231       1.51987858       4.40380149        2       1.00000000       0.03878804       0.03094345      -0.13895792
Ni       7.82147870       1.55166988       4.41315342        2       1.00000000      -0.03415757       0.01109448      -0.08852383
Pt       1.23500482       3.82520916       4.42792925        2       0.00000000      -0.03022051       0.03829072      -0.05341546
Pt       4.01648382       3.73412188       4.34588838        2       0.00000000      -0.00856753       0.02468656      -0.04129086
Ni       6.62053193       3.77158152       4.43816746        2       1.00000000       0.01333096       0.02333140       0.03242888
Ni       9.11643404       3.85852057       4.46225006        2       1.00000000      -0.02732971       0.03622268      -0.05926922
Pt       2.59773166       6.05522257       4.40827050        2       0.00000000       0.03203580       0.01613834      -0.01888871
Pt       5.35262139       5.98619972       4.34373254        2       0.00000000       0.02677607      -0.05061166       0.00742503
Ni       7.93995827       5.96676498       4.40336471        2       1.00000000       0.02521949      -0.06241295      -0.12194968
Ni      10.43333859       6.03239393       4.47214775        2       1.00000000      -0.02447853      -0.02237956      -0.07879149
Pt       3.93234988       8.32358310       4.31688099        2       0.00000000       0.01974511      -0.02809734      -0.04838394
Pt       6.59982050       8.25603169       4.34959529        2       0.00000000      -0.00629829       0.03549952       0.01608644
Pt       9.21242695       8.21133753       4.40494541        2       0.00000000      -0.01282941      -0.00626447       0.01853091
Pt      11.80989578       8.39824318       4.37883216        2       0.00000000      -0.01284418       0.02198706      -0.03795371
Pt      -0.04948578      -0.02308041       6.74266452        1       0.00000000      -0.00452813       0.05407869       0.09201963
Pt       2.65313640      -0.07201641       6.74700852        1       0.00000000       0.03688281      -0.00923755       0.15707414
Pt       5.29606194      -0.11054641       6.73730904        1       0.00000000       0.03450998      -0.05830983       0.11628106
Ni       7.84256411       0.00769756       6.66352350        1       1.00000000       0.03228156       0.07637268      -0.09648771
Pt       1.28286396       2.27957758       6.60396607        1       0.00000000      -0.00806523       0.01597082       0.02484338
Pt       3.96029318       2.24183643       6.59773348        1       0.00000000       0.02025251      -0.01577473       0.02459246
Pt       6.58691210       2.23836768       6.52431599        1       0.00000000      -0.02862427      -0.01758814      -0.05160079
Pt       9.13838663       2.36745563       6.68150116        1       0.00000000       0.00757938       0.12790531       0.13903354
Pt       2.55070319       4.57112308       6.71726808        1       0.00000000      -0.06873770       0.05160041       0.07645157
Pt       5.29721547       4.52872588       6.67119204        1       0.00000000      -0.04344654       0.02255796       0.06463627
Ni       7.92774611       4.55684019       6.52415870        1       1.00000000       0.01840297       0.06447379      -0.15796092
Ni      10.42443510       4.62058529       6.61914675        1       1.00000000      -0.08937082       0.10464144      -0.12878796
Pt       3.87512215       6.82826742       6.71763623        1       0.00000000      -0.05805303       0.06316899       0.11856882
Pt       6.67137767       6.73196674       6.59404969        1       0.00000000       0.05128024      -0.00388041       0.03670242
Ni       9.23935427       6.72560153       6.60905789        1       1.00000000       0.04224158      -0.08179772      -0.10827645
Ni      11.75308667       6.79549397       6.63593106        1       1.00000000      -0.08117751      -0.06861413      -0.15281298
