64
Lattice="10.30847402867037 0.000419686168867352 0.00046730274336838264 5.15460047321904 8.873381377567297 -0.012358400845179147 0.0003815510922184201 -0.01187190068213224 8.794074967755646" Properties=species:S:1:pos:R:3:tags:I:1:initial_magmoms:R:1:forces:R:3 unique_id=9ab0a651d06346c1b98a9cae8253d87b stress="0.00020670196114560418 -1.427962929756449e-06 1.1149174091229008e-05 -1.427962929756449e-06 0.0002179637036591464 3.194930232780265e-05 1.1149174091229008e-05 3.194930232780265e-05 0.00021161988354004985" energy=-397.0779809780647 pbc="T T T"
Ni      -0.02601893       0.03904727       0.21106675        4       1.00000000      -0.06485182       0.14393724       0.39526010
Ni       2.57227326       0.00508592       0.11330036        4       1.00000000      -0.04070804       0.03061248       0.26797393
Ni       5.15381759      -0.02394281       0.16220959        4       1.00000000       0.02657322       0.06734217       0.36855657
Ni       7.76308736      -0.04438726       0.11359535        4       1.00000000       0.11417177      -0.08892037       0.23923867
Ni       1.24419478       2.21304215       0.18167841        4       1.00000000      -0.14213448      -0.00133795       0.25932633
Pt       3.77734669       2.16471830       0.11012909        4       0.00000000      -0.09922210       0.00849460      -0.10007991
Pt       6.49730390       2.12459471       0.19261114        4       0.00000000       0.11932401      -0.14674565       0.22457250
Ni       9.06908563       2.18806243       0.18096562        4       1.00000000       0.12687812      -0.09060401       0.23699337
Ni       2.53503790       4.45036588       0.12611152        4       1.00000000      -0.02537365      -0.06090073       0.11997708
Pt       5.13350852       4.44984156       0.14042546        4       0.00000000       0.01915338      -0.00714265       0.31379799
Pt       7.84636842       4.44463595       0.10065356        4       0.00000000       0.18175215      -0.02482730      -0.10272847
Ni      10.33714868       4.42898742       0.07340001        4       1.00000000       0.09536560      -0.10597071       0.08813482
Ni       3.81573090       6.70903840       0.08660163        4       1.00000000      -0.04528013       0.08083373       0.15533318
Pt       6.44951942       6.75357152       0.18905905        4       0.00000000      -0.05509539       0.07116127       0.20101073
Ni       9.04989178       6.67735057       0.06498717        4       1.00000000       0.04695234       0.04931869       0.05669666
Ni      11.61311838       6.66545416       0.05559311        4       1.00000000       0.08830086      -0.00000399       0.05133065
Ni       1.28207882       0.76836621       2.18061279        3       1.00000000      -0.01379407       0.14278461      -0.03913767
Ni       3.83405719       0.76346365       2.23134752        3       1.00000000      -0.10575760       0.07061192       0.10067959
Ni       6.47409216       0.74067798       2.25310000        3       1.00000000       0.10036333       0.06885944       0.14876851
Ni       9.02332481       0.76294719       2.18914527        3       1.00000000      -0.02229130       0.11400540       0.05014027
Ni       2.55351219       2.90189042       2.24516176        3       1.00000000      -0.09864599      -0.10986743       0.12527257
Ni       5.13957850       2.90621889       2.25388612        3       1.00000000      -0.15651625      -0.13257558      -0.04618098
Ni       7.78883265       2.93110604       2.23422318        3       1.00000000       0.26288746      -0.10973611      -0.09065428
Ni      10.29187296       2.90658480       2.21591795        3       1.00000000      -0.03870062      -0.12899769       0.10443926
Pt       3.83062296       5.18069579       2.23683890        3       0.00000000      -0.01610411      -0.09194963      -0.14605540
Ni       6.49746268       5.17667649       2.22413726        3       1.00000000       0.10258136       0.06885870      -0.11521270
Ni       8.99704093       5.15066028       2.23732504        3       1.00000000      -0.08263552      -0.08350888       0.15326229
Pt      11.54998905       5.10285233       2.17761079        3       0.00000000      -0.14270965      -0.15552594       0.03499047
Ni       5.13148076       7.44517605       2.18190003        3       1.00000000      -0.13457757       0.10944024      -0.07031111
Ni       7.73552252       7.41241619       2.20948406        3       1.00000000       0.01829467       0.05199386      -0.00959022
Pt      10.28529203       7.41537409       2.11851222        3       0.00000000       0.01833292      -0.07667451       0.00384779
Ni      12.90028254       7.43492591       2.15653524        3       1.00000000      -0.05714976       0.07714126      -0.06760239
Ni       0.00209562       1.54135573       4.30845516        2       1.00000000       0.01829190       0.18871257      -0.21085052
Ni       2.58909353       1.53557536       4.33158650        2       1.00000000      -0.01050679       0.10760693      -0.23355213
Ni       5.11481445       1.50857177       4.31898858        2       1.00000000      -0.05262299       0.06958536      -0.18851961
Ni       7.76478322       1.49289578       4.30726026        2       1.00000000       0.11282775       0.07519935      -0.21398222
Ni       1.29443457       3.64395061       4.33438979        2       1.00000000       0.00115598      -0.13383653      -0.15073279
Ni       3.81858420       3.63095254       4.33878244        2       1.00000000      -0.06113591      -0.03455011      -0.14017452
Pt       6.50565101       3.65411234       4.24274115        2       0.00000000      -0.03022567      -0.07746779       0.03325015
Ni       9.03961575       3.66174822       4.32835579        2       1.00000000       0.10925627      -0.13004445      -0.24896500
Ni       2.56368606       5.88771383       4.37093782        2       1.00000000      -0.05151065       0.02773891      -0.08229227
Pt       5.14684177       5.91275782       4.30960360        2       0.00000000       0.13570698       0.03327468       0.07730408
Ni       7.75777472       5.87675495       4.32835984        2       1.00000000       0.02086302       0.00418334      -0.23000390
Pt      10.29137777       5.82276298       4.42537656        2       0.00000000       0.00309015      -0.06276074       0.03313437
Pt       3.84880849       8.18482417       4.29586927        2       0.00000000      -0.05155447       0.13939854      -0.03545767
Pt       6.45162874       8.22241939       4.25635689        2       0.00000000       0.00078248       0.22008976       0.03026716
Pt       8.99454257       8.16950327       4.33611418        2       0.00000000      -0.09997082       0.07666671       0.06769905
Pt      11.61239113       8.16391116       4.34590160        2       0.00000000       0.02814349       0.08260742       0.05569345
Pt      -0.02926445      -0.03656709       6.59943470        1       0.00000000      -0.04329269      -0.07450029       0.29064947
Ni       2.59719498      -0.00327335       6.53353854        1       1.00000000      -0.02108649       0.03122500      -0.09910361
Pt       5.11725155      -0.06598737       6.59705435        1       0.00000000      -0.11446536      -0.14578523       0.18848999
Ni       7.72742573      -0.05361502       6.54354034        1       1.00000000      -0.02382905      -0.07967838      -0.05308090
Pt       1.33895347       2.20324300       6.49859069        1       0.00000000       0.05918780      -0.02854921       0.08832564
Ni       3.85510440       2.18932964       6.42174508        1       1.00000000       0.00052540      -0.03827080      -0.30634718
Pt       6.44273616       2.15841232       6.45121644        1       0.00000000       0.02560735      -0.09646300      -0.27763254
Pt       9.02442500       2.26638320       6.50010788        1       0.00000000       0.02250401       0.02699110       0.06266772
Pt       2.52403750       4.49649901       6.49679789        1       0.00000000      -0.10977797       0.07388275      -0.00905044
Pt       5.12907975       4.40595392       6.45387740        1       0.00000000      -0.02553984      -0.00263837      -0.37573582
Ni       7.77610338       4.44784148       6.42941467        1       1.00000000       0.06437964      -0.01925159      -0.34083256
Ni      10.28504204       4.45845894       6.52507008        1       1.00000000      -0.04822686       0.00799268      -0.04408076
Ni       3.81889573       6.66579802       6.51894361        1       1.00000000      -0.06766186       0.06438108      -0.15944802
Pt       6.54349605       6.63846544       6.47352026        1       0.00000000       0.15037394       0.02271474      -0.22087622
Ni       9.04390123       6.60539717       6.52261164        1       1.00000000       0.09125437      -0.15731793      -0.10853004
Ni      11.60438401       6.64817768       6.53031035        1       1.00000000      -0.01192625       0.08875701      -0.11028253
