64
Lattice="10.312567776941973 -0.0024655430888984283 0.014714649318314437 5.154148665521878 8.86904098503644 0.006417651583282987 0.012014460857954282 -0.0008859322720655084 8.786611073393992" Properties=species:S:1:pos:R:3:tags:I:1:initial_magmoms:R:1:forces:R:3 unique_id=f985abc0f1da42f98b140f1afbbb279e stress="0.00020165734085719061 4.3500700192653516e-06 -1.2584718376421846e-05 4.3500700192653516e-06 0.00020983950510196359 1.6223797945849543e-05 -1.2584718376421846e-05 1.6223797945849543e-05 0.00020173778445982393" energy=-397.2566393713306 pbc="T T T"
Ni      -0.02387232       0.02753426       0.20746486        4       1.00000000      -0.08982462       0.11631666       0.34766408
Ni       2.57964561       0.00590463       0.21670615        4       1.00000000       0.02103669       0.00760701       0.37952465
Ni       5.15726675      -0.01162058       0.17201227        4       1.00000000      -0.00937865       0.15376093       0.27313335
Ni       7.76361015      -0.03875587       0.12182490        4       1.00000000       0.08514262      -0.09033127       0.20037279
Ni       1.27057535       2.21068302       0.17221444        4       1.00000000      -0.07310532      -0.05928466       0.23324685
Pt       3.80942217       2.22090653       0.11472673        4       0.00000000      -0.04458687       0.05464345      -0.14167837
Pt       6.47624474       2.15739524       0.20264341        4       0.00000000       0.07899958      -0.09824316       0.21210556
Ni       9.04698097       2.18013602       0.16604512        4       1.00000000       0.02121622      -0.15391809       0.14549393
Ni       2.56073417       4.45713480       0.06065349        4       1.00000000      -0.06475235       0.04716202      -0.05244503
Ni       5.15044484       4.44003148       0.16728819        4       1.00000000       0.20167319      -0.08596708       0.21989899
Pt       7.81022272       4.44531570       0.11342541        4       0.00000000       0.17067332      -0.01575397      -0.10232041
Ni      10.34326161       4.44493828       0.07372481        4       1.00000000       0.12831961       0.00520375       0.01479425
Ni       3.82968149       6.68100507       0.09166041        4       1.00000000      -0.07299022       0.12820781       0.06534479
Pt       6.41791305       6.70644956       0.20777268        4       0.00000000      -0.08116494       0.06009043       0.17351166
Ni       9.04822443       6.66638254       0.08864816        4       1.00000000       0.00181040       0.03760784      -0.00901083
Ni      11.62196599       6.66048621       0.07022835        4       1.00000000       0.11020254       0.04693448      -0.04098959
Ni       1.29068819       0.72788267       2.16132871        3       1.00000000      -0.02873025       0.02616050      -0.02783700
Ni       3.86292591       0.75807124       2.20848719        3       1.00000000       0.05106145       0.05444822       0.05699199
Ni       6.47526796       0.74054094       2.25386740        3       1.00000000       0.08302451       0.03297296       0.15526529
Ni       9.00171219       0.72287223       2.19664507        3       1.00000000      -0.14040549       0.01731031       0.00240392
Ni       2.58253515       2.94190997       2.20931404        3       1.00000000      -0.05505143       0.07867979      -0.05072243
Ni       5.15322910       2.92754029       2.24681749        3       1.00000000      -0.07868325      -0.14292175       0.03957138
Ni       7.74754988       2.93560923       2.24837589        3       1.00000000       0.09214824      -0.09077829      -0.05451147
Pt      10.27831067       2.90081760       2.24047432        3       0.00000000      -0.02649064      -0.00181076       0.09759206
Pt       3.88531425       5.16207352       2.16060359        3       0.00000000      -0.03933280       0.00086017      -0.05052078
Ni       6.48505134       5.16226293       2.22693006        3       1.00000000       0.11871097       0.03369342      -0.05674026
Ni       8.99544456       5.17538428       2.26203091        3       1.00000000      -0.02873861      -0.01677510       0.17070508
Pt      11.59610945       5.16255093       2.22685522        3       0.00000000      -0.05338838      -0.00747462       0.02572859
Ni       5.13004689       7.43387376       2.19608948        3       1.00000000      -0.15078162       0.05214925      -0.07310361
Ni       7.73867318       7.38880562       2.21373670        3       1.00000000       0.02798655      -0.08707987       0.00279709
Pt      10.29245132       7.40629590       2.13672722        3       0.00000000       0.01357162      -0.06584874      -0.02492384
Ni      12.91199241       7.42342534       2.17741841        3       1.00000000      -0.02425177      -0.00316647      -0.11820950
Ni      -0.01512660       1.52644361       4.34891943        2       1.00000000       0.01011833       0.09916082       0.03229823
Pt       2.60536611       1.57773684       4.28277003        2       0.00000000      -0.08197319       0.06351384      -0.01722347
Ni       5.16129029       1.49305734       4.32826242        2       1.00000000       0.03266391      -0.03156195      -0.17614511
Ni       7.76335848       1.48938108       4.32248159        2       1.00000000       0.07459091       0.05174436      -0.19211729
Ni       1.27581462       3.75263580       4.38183861        2       1.00000000      -0.04358196       0.08777320      -0.03147572
Ni       3.84409258       3.69874116       4.36657748        2       1.00000000      -0.02945638       0.07448542      -0.16829751
Pt       6.50571345       3.66661349       4.27007929        2       0.00000000      -0.01618665      -0.07920260       0.09192670
Ni       9.06154928       3.72313708       4.37167062        2       1.00000000       0.10501026       0.06108906      -0.11313360
Ni       2.54314662       5.86413254       4.41847204        2       1.00000000      -0.06369612      -0.05418945      -0.03588475
Pt       5.12218131       5.88376829       4.32381306        2       0.00000000       0.06705923       0.01591864       0.06100470
Ni       7.80100800       5.85980426       4.34981073        2       1.00000000       0.08456663      -0.07449484      -0.18155292
Ni      10.31392974       5.84784993       4.42430411        2       1.00000000       0.00890880      -0.04895510      -0.06783635
Pt       3.83966546       8.16886900       4.30732959        2       0.00000000      -0.00563862       0.06862674      -0.02968879
Pt       6.44700991       8.15903245       4.25529914        2       0.00000000      -0.02516520       0.03823015       0.06177771
Pt       9.03365801       8.07091598       4.33989187        2       0.00000000      -0.03991024      -0.00163923       0.11209347
Pt      11.62321772       8.11173007       4.36239530        2       0.00000000      -0.01212501      -0.05995438      -0.02123093
Pt      -0.05579150      -0.02749586       6.58508892        1       0.00000000      -0.05279964      -0.04408633       0.23185285
Pt       2.61323086       0.00866519       6.60208498        1       0.00000000       0.00247757       0.06346853       0.23590211
Pt       5.20666439      -0.08074861       6.59288943        1       0.00000000       0.03620746      -0.30062790       0.15640354
Ni       7.73743405      -0.04902071       6.54451092        1       1.00000000       0.01702747      -0.10376978      -0.08556735
Pt       1.32315606       2.33871522       6.54301956        1       0.00000000       0.05300586       0.17587493       0.13735051
Ni       3.87017031       2.23281046       6.44626438        1       1.00000000       0.00422179      -0.08227262      -0.30097237
Pt       6.44917824       2.18902625       6.46257100        1       0.00000000      -0.02332416      -0.02648222      -0.25128263
Pt       9.02510647       2.28413518       6.50677742        1       0.00000000       0.02258631       0.09543855       0.01639383
Ni       2.55116913       4.48817966       6.49477837        1       1.00000000      -0.15536292       0.19558067      -0.24555024
Pt       5.05527571       4.41225729       6.56342038        1       0.00000000      -0.19079748       0.04192484       0.07442038
Ni       7.78793203       4.45057650       6.43961296        1       1.00000000       0.05886039       0.00567554      -0.30233336
Ni      10.32272523       4.50196969       6.49796886        1       1.00000000       0.01142157       0.16766778      -0.21634002
Ni       3.79597521       6.63722559       6.52917998        1       1.00000000      -0.19268518       0.00832586      -0.15884580
Pt       6.50464118       6.58614657       6.48821492        1       0.00000000       0.06984134      -0.08630409      -0.23373693
Ni       9.07643749       6.57563079       6.52010362        1       1.00000000       0.10055941      -0.17560545      -0.20235654
Ni      11.62733234       6.58694674       6.52836947        1       1.00000000       0.02965521      -0.17980816      -0.19298555
