64
Lattice="10.274411306893377 -0.01664179614809524 0.029278090064980746 5.122793435217837 8.807845528205522 -0.04854405675660006 0.0 0.0 21.55899320899301" Properties=species:S:1:pos:R:3:tags:I:1:initial_magmoms:R:1:forces:R:3 unique_id=ad4366bfb8c140f8bf472c4e393f1295 stress="0.0053046059395452615 2.865583212682207e-05 0.0002490423508599872 2.865583212682207e-05 0.004648086004126421 -0.00010029973614506256 0.0002490423508599872 -0.00010029973614506256 -0.0016503793186883626" energy=-373.01081005728014 pbc="T T T"
Ni       0.03929423      -0.04406335       0.14394944        1       1.00000000       0.14173419      -0.01356384      -0.10623272
Ni       2.51526127      -0.03630591       0.16810383        2       1.00000000      -0.02726444       0.00311477      -0.01834014
Pt       5.12981393      -0.05584757       0.11113762        1       0.00000000      -0.10888174       0.13626376      -1.08099711
Ni       7.72991821      -0.06733647       0.16955378        2       1.00000000      -0.06333679      -0.01338407      -0.30606848
Ni       1.27763538       2.20352542       0.05918932        1       1.00000000      -0.01378400       0.00410098       0.39297943
Pt       3.75214592       2.21062080       0.13669238        1       0.00000000       0.06259298      -0.00898763      -0.37879751
Pt       6.45168083       2.21287078       0.07030591        1       0.00000000      -0.03142488      -0.01374354      -0.16666562
Pt       9.06936980       2.22973364       0.09578170        1       0.00000000       0.06585742       0.08547724      -0.55972803
Ni       2.53355027       4.43112823       0.00000000        0       1.00000000       0.05171628       0.01985104       0.20013412
Pt       5.12409780       4.51032751       0.03927048        0       0.00000000      -0.07345028       0.07161143       0.02049794
Ni       7.70958421       4.44347411       0.02483612        0       1.00000000      -0.00896448       0.03679704       0.12359124
Ni      10.30181102       4.41447503       0.01946818        0       1.00000000       0.08406852       0.04907003       0.23196381
Ni       3.82366164       6.63772993       0.02821920        0       1.00000000       0.01250700       0.08011679       0.34150785
Ni       6.42693492       6.64052030       0.04612887        0       1.00000000       0.00397282       0.09032322       0.35502180
Ni       8.94594446       6.56252094       0.08973930        1       1.00000000      -0.13333893       0.03741157      -0.24195722
Ni      11.58726666       6.55516640       0.01858032        0       1.00000000       0.05411100       0.03033724       0.20043292
Ni       1.31891437       0.72412004       2.18137242        4       1.00000000       0.05372179       0.07150647       0.22921939
Ni       3.81104444       0.74697702       2.21805030        4       1.00000000      -0.07692370       0.09044575       0.23387884
Ni       6.42839105       0.75186889       2.22208116        4       1.00000000      -0.06960303       0.13857326       0.27293329
Pt       9.01919206       0.70499651       2.20999891        4       0.00000000       0.07610957       0.10223301      -0.00340922
Ni       2.55792503       2.89058493       2.23000567        4       1.00000000       0.02789980      -0.14190862       0.26544457
Ni       5.11912804       2.91920375       2.21552413        4       1.00000000      -0.10794238      -0.03631968       0.19302537
Ni       7.68586866       2.90462906       2.21063256        4       1.00000000      -0.06757994      -0.12610752       0.13255211
Ni      10.32556854       2.88564393       2.23171928        4       1.00000000       0.14329096      -0.13246865       0.28274102
Ni       3.86326290       5.12091456       2.15925648        4       1.00000000       0.04648906      -0.09370091       0.12508584
Ni       6.40599115       5.13730713       2.14625186        3       1.00000000      -0.01700391      -0.01149663       0.03888394
Pt       8.92046110       5.05674474       2.17174285        4       0.00000000      -0.04746184      -0.23977266       0.04924169
Pt      11.62956323       5.04631048       2.17974141        4       0.00000000       0.08958348      -0.17912380       0.10870851
Ni       5.16600642       7.29701907       2.09141219        3       1.00000000       0.05875857      -0.09399982      -0.01449515
Ni       7.62614962       7.33621872       2.11012196        3       1.00000000      -0.17103723       0.00103393       0.10543897
Pt      10.26690290       7.28655790       2.14388712        3       0.00000000       0.02075202      -0.06280494      -0.16691744
Ni      12.87672707       7.28294594       2.10641515        3       1.00000000       0.12703446      -0.09300863       0.01008547
Ni       0.07181729       1.48752321       4.28641252        6       1.00000000       0.19521906       0.06845374      -0.18068536
Ni       2.53278190       1.48426506       4.26556133        6       1.00000000      -0.09231230       0.07624695      -0.22810695
Ni       5.13231394       1.46230626       4.26733824        6       1.00000000      -0.11768551      -0.02438923      -0.41023370
Ni       7.71693345       1.44885694       4.31228722        6       1.00000000       0.01995550      -0.08086523      -0.25206492
Ni       1.29448712       3.62753880       4.32843902        6       1.00000000       0.03206256      -0.06292655      -0.02716922
Ni       3.80996817       3.64447766       4.25644062        6       1.00000000      -0.13610485      -0.01782012      -0.34194354
Pt       6.45914348       3.59136704       4.29642122        6       0.00000000       0.04003941      -0.04905385      -0.11696197
Ni       9.03420663       3.65240943       4.29849978        6       1.00000000       0.13323266       0.00247494      -0.16223452
Ni       2.55967838       5.77852777       4.32551589        6       1.00000000       0.01800274      -0.15299790      -0.04042377
Pt       5.14706372       5.81655974       4.28747141        6       0.00000000       0.05104659      -0.02831571      -0.09498594
Ni       7.70246509       5.81528641       4.30722871        6       1.00000000      -0.04508562      -0.02740175      -0.12664421
Ni      10.29466996       5.76097812       4.34150000        6       1.00000000       0.04617790      -0.09083981      -0.05118921
Pt       3.89329797       8.04335817       4.23241460        5       0.00000000       0.06824400       0.04865125      -0.01251634
Ni       6.42030627       8.05671625       4.23137327        5       1.00000000      -0.07860117       0.08717438      -0.28723147
Pt       8.89282235       8.05126183       4.21331218        5       0.00000000      -0.11669011       0.08959740      -0.04891159
Pt      11.58120061       8.00663609       4.23926662        5       0.00000000      -0.01700561      -0.06803711       0.01977009
Pt       0.02908071      -0.07422692       6.51232867        8       0.00000000       0.00915933       0.11748947       0.29399601
Pt       2.55367087      -0.03849595       6.51265760        8       0.00000000       0.01357587       0.09364106       0.26645746
Pt       5.15473913      -0.02940175       6.42812387        7       0.00000000      -0.06139675       0.17846952       1.09256456
Pt       7.72497953      -0.08946445       6.55899321        9       0.00000000      -0.03751290       0.16780173       0.47270344
Ni       1.29561457       2.22391833       6.42369873        7       1.00000000      -0.00005714       0.09990840      -0.29853308
Pt       3.84322991       2.27805598       6.35650325        7       0.00000000      -0.00660945       0.09333641       0.33600220
Ni       6.43689940       2.19278366       6.39275319        7       1.00000000      -0.02642865      -0.04199343       0.19610038
Pt       9.01910855       2.24904721       6.35864990        7       0.00000000      -0.00084486      -0.08915758       0.50941039
Ni       2.54290347       4.40350194       6.41281827        7       1.00000000       0.02518213       0.02173082      -0.38477325
Ni       5.15416253       4.39301376       6.38668626        7       1.00000000      -0.05749572       0.00013931       0.10649822
Ni       7.67429690       4.35410782       6.44996566        7       1.00000000      -0.10590668      -0.03252946      -0.18389678
Ni      10.34518136       4.35200009       6.43708550        7       1.00000000       0.12462198      -0.01701803      -0.32427464
Ni       3.84332682       6.49456197       6.44564120        7       1.00000000      -0.06080309      -0.12387364      -0.23200372
Ni       6.41215527       6.50630202       6.44516330        7       1.00000000       0.01822263      -0.00043352      -0.18773701
Pt       8.99612094       6.42919740       6.46208759        8       0.00000000       0.07099360      -0.03432372       0.05336498
Ni      11.59012516       6.47704895       6.44859750        7       1.00000000      -0.00739792       0.00898465      -0.22410601
