64
Lattice="10.554481519702342 -0.008869744041698626 0.005073132146415557 5.269559336185996 9.15210099001335 -0.027142490545288923 0.004142195052142864 -0.027981682925544687 9.113106222010229" Properties=species:S:1:pos:R:3:tags:I:1:initial_magmoms:R:1:forces:R:3 unique_id=3ccc4a567504433b86bfd921a2e4521e stress="-0.005420949845579469 3.355980079980755e-05 7.765612654174331e-06 3.355980079980755e-05 -0.0054192375725105255 2.0937696573194416e-05 7.765612654174331e-06 2.0937696573194416e-05 -0.004286611498056037" energy=-416.17971421682216 pbc="T T T"
Ni       0.01860431       0.00785910       0.05365039        4       1.00000000       0.00546390       0.01472688       0.08761251
Ni       2.63877246       0.00934997       0.14569551        4       1.00000000       0.03580659      -0.01716947       0.27383284
Pt       5.20852064       0.01361274       0.05142101        4       0.00000000      -0.06817214       0.07290681      -0.05599205
Pt       7.91988167      -0.03536572       0.10144153        4       0.00000000      -0.02388361       0.00209370       0.01892251
Pt       1.38029930       2.25099210      -0.00187160        4       0.00000000       0.12334821      -0.07113835      -0.26834633
Ni       3.93677334       2.27523192       0.14479841        4       1.00000000       0.00971845      -0.02632239       0.29408700
Pt       6.57650130       2.27471883       0.10102944        4       0.00000000       0.07695522       0.00945359       0.06356369
Pt       9.28850996       2.26262103       0.02784158        4       0.00000000       0.08417987       0.00013290      -0.15521403
Ni       2.62429600       4.56801548       0.12730163        4       1.00000000      -0.00835869      -0.02346411       0.18435064
Pt       5.21639306       4.54222699       0.10562169        4       0.00000000      -0.02189029      -0.04820974      -0.04722812
Pt       7.92869054       4.58360551       0.14193456        4       0.00000000       0.03872965       0.00609928       0.06047973
Pt      10.63145710       4.59082946       0.08781119        4       0.00000000       0.08934691      -0.04664549      -0.04457748
Pt       3.90611419       6.84398443       0.07712349        4       0.00000000      -0.08586994      -0.05961674      -0.08700415
Pt       6.58695664       6.92589992       0.09740437        4       0.00000000      -0.02755374       0.02947317      -0.07059326
Pt       9.26023356       6.86941704       0.00032502        4       0.00000000       0.03874804      -0.02559937      -0.18013998
Ni      11.86712033       6.83967610       0.11650089        4       1.00000000      -0.00995185      -0.01309922       0.20237961
Pt       1.33898576       0.78107961       2.26567508        3       0.00000000      -0.02194502       0.02293791       0.00683281
Ni       3.95023093       0.75625470       2.27205752        3       1.00000000       0.02153717       0.00735281       0.06852325
Pt       6.58171888       0.74657135       2.37283437        3       0.00000000       0.02572141       0.00488877       0.08509155
Pt       9.26919616       0.82212297       2.34963002        3       0.00000000       0.04390486       0.16400520       0.02840567
Pt       2.60214368       3.05944957       2.26486503        3       0.00000000      -0.06089272      -0.00485923       0.01554233
Pt       5.27058853       3.04891561       2.35262146        3       0.00000000       0.02527743       0.02739503       0.10744373
Pt       7.96498953       3.11621231       2.42655097        3       0.00000000       0.02200190       0.08839110       0.08715546
Ni      10.55391951       3.08105258       2.31629001        3       1.00000000      -0.01116520       0.10173773       0.03853968
Pt       3.91779349       5.30002079       2.29711265        3       0.00000000      -0.07122329      -0.00261692       0.03621951
Ni       6.61066973       5.31601267       2.28477295        3       1.00000000      -0.01094120      -0.00580244      -0.04003616
Ni       9.26242465       5.30405955       2.29779526        3       1.00000000       0.13867139      -0.05360120       0.00954542
Ni      11.83574570       5.29404356       2.26232278        3       1.00000000      -0.08202674      -0.07538061       0.06621074
Pt       5.27130239       7.61922700       2.28440691        3       0.00000000      -0.06022198       0.04389695       0.01561759
Pt       7.94835375       7.59756600       2.28239375        3       0.00000000       0.00525025      -0.01940432       0.01447733
Pt      10.54326644       7.56310340       2.29376411        3       0.00000000      -0.01681677      -0.01039963       0.00993718
Pt      13.13572482       7.57869174       2.29911486        3       0.00000000      -0.01273713       0.00451055       0.09231900
Ni      -0.04143352       1.55037206       4.57285397        2       1.00000000      -0.08643927       0.02977539      -0.00932171
Pt       2.63192559       1.55252651       4.52651654        2       0.00000000       0.05973147       0.01152849      -0.01642197
Pt       5.31539771       1.52503713       4.53452339        2       0.00000000      -0.01099538       0.01249951       0.06033647
Ni       7.95288657       1.55250390       4.55027521        2       1.00000000       0.07741136       0.13826020      -0.01109332
Pt       1.22332986       3.74903505       4.52007489        2       0.00000000      -0.07068015      -0.06200479      -0.05252665
Ni       3.95374340       3.78341677       4.52837836        2       1.00000000      -0.10113412      -0.02981818       0.01769657
Ni       6.62448437       3.77386543       4.51692894        2       1.00000000       0.05905851      -0.06282591       0.00825159
Ni       9.23677896       3.73723430       4.53070793        2       1.00000000       0.02683367      -0.14891401       0.01397589
Pt       2.60180791       6.06489586       4.50006483        2       0.00000000      -0.06351914      -0.08377642       0.05306144
Pt       5.29476355       6.01006618       4.46346607        2       0.00000000      -0.00603273      -0.03616530      -0.09992163
Pt       7.93072302       5.99574674       4.44714587        2       0.00000000      -0.01838427      -0.13780525      -0.16859404
Pt      10.52968332       6.03383329       4.51289172        2       0.00000000      -0.04648590      -0.06281605      -0.03995677
Pt       3.93035534       8.46518843       4.50695173        2       0.00000000      -0.02032753       0.02497732      -0.06084671
Pt       6.56459645       8.42874674       4.52356812        2       0.00000000      -0.01058315       0.06757968       0.01366831
Pt       9.27482372       8.37585294       4.55280777        2       0.00000000      -0.03978089      -0.01529445       0.00765483
Ni      11.86777628       8.38139974       4.53818731        2       1.00000000      -0.00339757      -0.01262216       0.01955326
Ni       0.00775921       0.03447978       6.76531891        1       1.00000000       0.00571598       0.16176658      -0.12391352
Pt       2.63248466      -0.00496104       6.82842854        1       0.00000000      -0.04961372       0.04266822       0.19901099
Ni       5.27830377      -0.02922369       6.70436329        1       1.00000000       0.02264313       0.05812521      -0.14878163
Pt       7.92699160       0.02323402       6.68490602        1       0.00000000       0.00603184       0.05572723       0.02273891
Ni       1.26423925       2.25528302       6.68379551        1       1.00000000      -0.19200495      -0.05721310      -0.30910554
Pt       3.94315461       2.24321049       6.79653110        1       0.00000000       0.00073564       0.02364090       0.19639096
Pt       6.64950270       2.25643774       6.67233278        1       0.00000000       0.11777374       0.09771026       0.04964008
Ni       9.28661036       2.25358895       6.65442116        1       1.00000000       0.18652095      -0.02346098      -0.29097394
Pt       2.56468323       4.51984306       6.78074324        1       0.00000000      -0.11910996      -0.02885831       0.12077193
Pt       5.28423523       4.53314411       6.66664499        1       0.00000000       0.00806972       0.00295148      -0.04504746
Pt       8.02753628       4.53020223       6.67316156        1       0.00000000       0.16227490       0.00827002       0.03175855
Ni      10.54587787       4.52744589       6.69749396        1       1.00000000       0.00429575      -0.08697892      -0.13102690
Pt       3.95632819       6.88649347       6.69359608        1       0.00000000       0.01192223       0.02778809      -0.03411931
Pt       6.62919485       6.86136073       6.69586657        1       0.00000000       0.06347989      -0.05888523      -0.05154768
Ni       9.24041506       6.83960368       6.68148871        1       1.00000000      -0.05452782       0.00150399      -0.25247597
Pt      11.77949281       6.85747165       6.77164289        1       0.00000000      -0.11049315       0.04599336       0.11320676
