64
Lattice="10.210775306977254 0.009863128072434548 -0.00559063987702979 5.113929372960135 8.860028080189801 0.04897519263966021 0.0 0.0 21.51964457821842" Properties=species:S:1:pos:R:3:tags:I:1:initial_magmoms:R:1:forces:R:3 unique_id=b1cdb490031a478e8eca6bf30966189e stress="0.0038509005486191284 0.0001257749635126994 -0.00010057707179770515 0.0001257749635126994 0.00393390419577019 0.0007162799049955025 -0.00010057707179770515 0.0007162799049955025 -0.002793436315239794" energy=-371.0531760707985 pbc="T T T"
Ni      -0.02209205      -0.01831482       0.01720089        0       1.00000000      -0.00731941      -0.05984707       0.14009633
Ni       2.57789313      -0.01205881       0.10119586        1       1.00000000       0.08462894      -0.04872554      -0.35788002
Ni       5.05810902      -0.00120650       0.04784797        0       1.00000000      -0.07095284       0.01563158       0.23900455
Ni       7.70169943       0.00166263       0.04139351        0       1.00000000       0.04702610       0.02534539       0.23921617
Ni       1.28117240       2.23577367       0.03886594        0       1.00000000       0.05381926       0.10616092       0.13047499
Ni       3.78558435       2.22133481       0.17013826        2       1.00000000      -0.03487243      -0.03917356      -0.37814791
Pt       6.32309093       2.16364733       0.00000000        0       0.00000000      -0.09377532       0.03482035      -0.24417634
Ni       8.99070209       2.19067207       0.13301715        1       1.00000000       0.03109951      -0.02839140      -0.41518328
Ni       2.58623808       4.40741903       0.15178959        2       1.00000000       0.00918824       0.04114257      -0.19164733
Ni       5.06881286       4.46924453       0.07647895        1       1.00000000       0.04307764      -0.02906352       0.20820977
Pt       7.66703692       4.52752641       0.01784534        0       0.00000000      -0.02656367       0.06792433      -0.29805453
Ni      10.22818584       4.41451614       0.14716813        1       1.00000000      -0.00644037       0.01274448      -0.26295652
Ni       3.87412580       6.65293048       0.08329739        1       1.00000000      -0.08678744       0.00102920       0.28883569
Ni       6.35667610       6.68966557       0.08193090        1       1.00000000       0.00890857       0.12020033       0.28948147
Ni       8.92635717       6.69936625       0.08189854        1       1.00000000       0.01800740       0.04863819       0.25063506
Pt      11.49906951       6.69817014       0.01904076        0       0.00000000       0.04138935       0.02788433       0.02676948
Pt       1.26538845       0.71234224       2.04755052        3       0.00000000      -0.05007969      -0.07095694      -0.01481270
Ni       3.86378035       0.72116883       2.08949826        4       1.00000000       0.08864151      -0.12160669       0.03729679
Ni       6.37728370       0.68380618       2.12458800        4       1.00000000       0.01773539      -0.16771173      -0.03861068
Ni       8.91097010       0.70589161       2.08531829        4       1.00000000      -0.07350701      -0.16412259      -0.02042356
Ni       2.56277602       2.95993812       2.09940946        4       1.00000000      -0.08173846      -0.04453806       0.07644118
Ni       5.06495786       2.97832696       2.10938703        4       1.00000000       0.01776654       0.03845125      -0.01122236
Pt       7.66860989       2.92448611       2.14347224        4       0.00000000      -0.03450181      -0.03332932      -0.00084578
Ni      10.24574873       2.96982696       2.10096193        4       1.00000000       0.07652794       0.00710215       0.07787454
Ni       3.86040196       5.20635520       2.10167469        4       1.00000000       0.05219996       0.13296146      -0.05695822
Ni       6.35499535       5.22787855       2.12628411        4       1.00000000       0.00999077       0.04421925      -0.01971260
Ni       8.94312346       5.24723041       2.14054906        4       1.00000000      -0.03157621       0.16503078      -0.00233461
Pt      11.50085884       5.19026609       2.21088385        5       0.00000000       0.02464618       0.08980362       0.08679635
Ni       5.09791958       7.37507206       2.11804181        4       1.00000000      -0.04942745      -0.03616933      -0.04764991
Ni       7.68798374       7.38724134       2.13443520        4       1.00000000       0.03796280      -0.02819999      -0.05817145
Ni      10.19017641       7.43368149       2.19350779        5       1.00000000      -0.01407705      -0.00237112       0.10367340
Ni      12.78260455       7.42405080       2.16170694        5       1.00000000      -0.05841586      -0.05939178      -0.03316710
Pt      -0.01000130       1.47805982       4.27283191        7       0.00000000       0.04550486       0.02803809       0.01004153
Pt       2.56309848       1.45813443       4.24065888        6       0.00000000      -0.00555643      -0.07534546      -0.04164008
Pt       5.16197357       1.38528298       4.22367887        6       0.00000000       0.06483762       0.00414220      -0.13586182
Ni       7.64558350       1.46582279       4.27781991        7       1.00000000       0.00869018       0.03753930      -0.14872974
Ni       1.27841002       3.74404017       4.29506684        7       1.00000000       0.05377390      -0.00512545      -0.02882552
Pt       3.77475054       3.75356690       4.19164792        6       0.00000000      -0.08912875       0.03244008      -0.16039727
Pt       6.38082400       3.71135550       4.31982258        7       0.00000000       0.00441718       0.00702419      -0.14531963
Pt       9.00030241       3.77257220       4.24271386        6       0.00000000       0.11063639       0.08739145      -0.14876759
Ni       2.49535324       5.96510086       4.30663982        7       1.00000000      -0.03617848      -0.05118377      -0.07235289
Pt       5.09325448       5.98758917       4.30366190        7       0.00000000      -0.07821020       0.04349943      -0.07810962
Pt       7.71842632       6.04140744       4.29279049        7       0.00000000       0.03202481       0.11501563      -0.07819291
Ni      10.25997989       6.01000482       4.29876509        7       1.00000000       0.00863122       0.06504115      -0.09586778
Pt       3.73633082       8.14489050       4.31564364        7       0.00000000      -0.06860005      -0.02686497      -0.05695228
Ni       6.38214881       8.14292282       4.31499457        7       1.00000000      -0.04324471       0.06299057      -0.14675360
Ni       8.99267306       8.12004154       4.29609835        7       1.00000000       0.09364187      -0.02909133      -0.19149948
Ni      11.47057749       8.09832879       4.30891957        7       1.00000000      -0.08771937      -0.03925287      -0.27630727
Ni      -0.01732543      -0.01996392       6.42789249        9       1.00000000      -0.05256809      -0.13559221      -0.05689319
Pt       2.52460623      -0.05587065       6.45796225       10       0.00000000       0.11681653      -0.07967864       0.21452065
Ni       5.14846570      -0.01810535       6.40666421        9       1.00000000      -0.03704512      -0.03604891      -0.18566673
Ni       7.61698941       0.00550789       6.40621580        9       1.00000000      -0.09912638       0.01680550      -0.18550766
Ni       1.26929975       2.24076299       6.43459559        9       1.00000000       0.07457642       0.04815099       0.00587075
Pt       3.89266746       2.23963123       6.51964458       10       0.00000000       0.03489675      -0.08759697       0.26933552
Ni       6.39618952       2.21721813       6.34559353        8       1.00000000       0.02593664      -0.19268734       0.54471928
Pt       8.88624185       2.18662871       6.49644778       10       0.00000000      -0.15550669       0.00529222       0.31237360
Pt       2.58450547       4.54780195       6.48350923       10       0.00000000       0.00303978       0.10882820       0.27920752
Ni       5.14358655       4.50115202       6.46508469       10       1.00000000       0.00356181      -0.04413544      -0.00610403
Ni       7.62777411       4.50369083       6.36675121        9       1.00000000       0.03874684       0.02043410       0.54054456
Pt      10.19104853       4.53859273       6.47916921       10       0.00000000       0.02764708       0.06582751       0.35886110
Ni       3.84088425       6.71953405       6.47228761       10       1.00000000      -0.04906421       0.02723587      -0.08866330
Ni       6.35893325       6.65933527       6.46525870       10       1.00000000      -0.00514497       0.00450155      -0.09998482
Ni       8.96130678       6.70175492       6.44364739        9       1.00000000       0.08462032       0.01851862      -0.10138804
Ni      11.48997674       6.75423088       6.32409591        8       1.00000000       0.03251214      -0.04160481       0.25145988
