64
Lattice="10.46609981173356 0.003845308550473573 0.09105501475115625 5.236380040756879 9.12168772854855 0.04162986310115771 0.07434610822064262 -0.0036747342627941734 9.057758311434812" Properties=species:S:1:pos:R:3:tags:I:1:initial_magmoms:R:1:forces:R:3 unique_id=6b6934de0e7142df9dcfa5ff26f73d83 stress="0.0005491762666587977 6.158203767029513e-06 -4.654630540648055e-06 6.158203767029513e-06 0.0005656222658817905 1.4139909350444168e-07 -4.654630540648055e-06 1.4139909350444168e-07 0.0004616226217495356" energy=-409.2590906412068 pbc="T T T"
Pt      -0.06248031       0.04142439       0.04242391        4       0.00000000      -0.05774764       0.04049102      -0.14231891
Ni       2.65025638      -0.02305094       0.09189394        4       1.00000000       0.08509561      -0.04875822       0.11623073
Ni       5.26410111      -0.04482923       0.19483282        4       1.00000000       0.09473585      -0.03763102       0.15576163
Ni       7.82877902      -0.00364717       0.17874318        4       1.00000000      -0.05103349      -0.07360275       0.15121934
Pt       1.26071381       2.29237666      -0.00782690        4       0.00000000       0.03020785       0.05952486      -0.18818232
Pt       3.95962615       2.20784601       0.15500997        4       0.00000000       0.07489003      -0.04324492      -0.09335311
Pt       6.63914740       2.19513998       0.19825090        4       0.00000000       0.07075605      -0.07045636      -0.06617083
Ni       9.15322134       2.30150857       0.15534195        4       1.00000000       0.00688069       0.06335702       0.10139580
Pt       2.56272368       4.60310483       0.12906496        4       0.00000000       0.01582342       0.01860109      -0.13196125
Pt       5.32672701       4.53246143       0.20700015        4       0.00000000       0.15691686      -0.08083403      -0.02938342
Ni       7.92832606       4.56206929       0.22516407        4       1.00000000       0.13113214      -0.00718902       0.15479373
Ni      10.40712826       4.59628612       0.15902677        4       1.00000000      -0.08552662       0.08012337       0.08464977
Pt       3.86344907       6.91684549       0.19628867        4       0.00000000       0.02248415       0.03330505      -0.08423338
Pt       6.62679906       6.84092071       0.20903319        4       0.00000000       0.01508647      -0.00463665      -0.05300003
Ni       9.20640886       6.82469431       0.15282156        4       1.00000000       0.09742443      -0.04938109       0.08601005
Ni      11.74526476       6.87819924       0.23947549        4       1.00000000       0.01277439       0.04055714       0.07041653
Pt       1.27621684       0.71004110       2.27095249        3       0.00000000      -0.01572060      -0.01549056      -0.06504813
Pt       4.03597451       0.75795955       2.34487228        3       0.00000000       0.02569076      -0.03223705       0.14954639
Ni       6.61491880       0.76084024       2.35002130        3       1.00000000       0.06664979       0.01302149       0.05328956
Ni       9.11184556       0.74745304       2.34082754        3       1.00000000      -0.07957067       0.04463003      -0.04782833
Pt       2.63915902       3.04409567       2.32064343        3       0.00000000      -0.05767764       0.01681003       0.02329414
Ni       5.30333441       3.02146398       2.35750573        3       1.00000000       0.03183948      -0.04135672       0.03837889
Pt       7.81537514       3.05392225       2.42386367        3       0.00000000      -0.02226807      -0.02265536       0.00541716
Pt      10.39190105       3.05119823       2.33583991        3       0.00000000      -0.02210144      -0.04215321      -0.05990348
Pt       4.00690642       5.37323194       2.33090359        3       0.00000000       0.01384895       0.01914776       0.08050862
Ni       6.61378227       5.28989657       2.35381300        3       1.00000000       0.08460864      -0.06956917       0.05313472
Ni       9.14524921       5.31171003       2.35764778        3       1.00000000      -0.02198268      -0.04713183       0.05901735
Pt      11.72093136       5.36464617       2.37228227        3       0.00000000      -0.04802743      -0.02016742       0.05287449
Ni       5.23420033       7.61587968       2.31169737        3       1.00000000       0.00133110       0.04026442      -0.03319590
Pt       7.89029107       7.50405918       2.36877155        3       0.00000000       0.05383179       0.01505787       0.12446209
Pt      10.52809746       7.61067466       2.29512531        3       0.00000000      -0.02135719       0.03693949       0.13734157
Ni      13.10896992       7.68426677       2.38328798        3       1.00000000      -0.01297947       0.09784549       0.03053325
Pt      -0.08390667       1.57766108       4.58226878        2       0.00000000      -0.12490587       0.06245866      -0.13974699
Pt       2.64794793       1.49919806       4.55198861        2       0.00000000      -0.08266301       0.01606362      -0.09527642
Ni       5.32834026       1.53703108       4.51591875        2       1.00000000       0.07781937       0.05074770      -0.08375666
Ni       7.86515997       1.55846410       4.53596557        2       1.00000000      -0.05803782       0.03470539      -0.13635902
Pt       1.22219061       3.83832835       4.55021261        2       0.00000000      -0.09197110       0.02954108      -0.10024343
Pt       4.06094680       3.75053649       4.48476699        2       0.00000000       0.04239664       0.03515886      -0.10407534
Ni       6.64589225       3.77995747       4.53889707        2       1.00000000       0.07433148       0.01518156       0.02601492
Ni       9.13873095       3.83722568       4.57403562        2       1.00000000      -0.08956953       0.04103969      -0.10270990
Pt       2.60548606       6.11150952       4.49328768        2       0.00000000      -0.03382204       0.03673880      -0.03989498
Pt       5.38880013       6.05550972       4.47786542        2       0.00000000       0.05209410      -0.04080339      -0.07756258
Ni       7.94721981       6.00575507       4.55206215        2       1.00000000       0.07866073      -0.14907908      -0.07630669
Ni      10.43348567       6.05830524       4.62354166        2       1.00000000      -0.09878020      -0.03268671       0.00256878
Pt       3.93703541       8.41727558       4.45570292        2       0.00000000      -0.02733874      -0.00191428      -0.14142285
Pt       6.56990348       8.36341639       4.57064539        2       0.00000000      -0.03512298       0.09418302      -0.05885153
Pt       9.20687370       8.27531427       4.63915104        2       0.00000000      -0.06645743      -0.02601630       0.07637512
Pt      11.80719510       8.45358250       4.55883039        2       0.00000000      -0.04024101       0.04458466       0.07871204
Ni       0.04542292       0.05145146       6.65716017        1       1.00000000      -0.05744283       0.06422210      -0.14309149
Ni       2.63892047       0.00403382       6.76256201        1       1.00000000      -0.10486889       0.07382253      -0.01001752
Pt       5.24819219      -0.03114439       6.83554592        1       0.00000000      -0.05907526      -0.00459188       0.16321432
Ni       7.92688708       0.02420466       6.78974868        1       1.00000000       0.02115579       0.01287064      -0.08585275
Ni       1.29374031       2.25065339       6.64693701        1       1.00000000      -0.12738559      -0.02672914      -0.17844546
Pt       3.93529553       2.22429881       6.70346246        1       0.00000000       0.01858937      -0.01895395       0.10769084
Pt       6.68198674       2.23037643       6.66292688        1       0.00000000       0.01427558      -0.03908657      -0.02875793
Ni       9.23889061       2.27222399       6.81916060        1       1.00000000       0.00844885       0.00005438       0.04516170
Pt       2.59915387       4.52081467       6.69008703        1       0.00000000       0.01905910      -0.02012341       0.03724810
Pt       5.33115131       4.55214411       6.71548306        1       0.00000000       0.06244441       0.00259548       0.08453680
Pt       8.02766748       4.55996454       6.76149137        1       0.00000000       0.02239300      -0.02046614       0.11362205
Ni      10.49298009       4.54179185       6.81799286        1       1.00000000       0.00089059      -0.07399408      -0.00900485
Pt       3.97266047       6.92808501       6.71346663        1       0.00000000       0.00706809       0.05358985      -0.00839007
Pt       6.68440698       6.89942388       6.73765996        1       0.00000000       0.05638861      -0.00316181       0.09115342
Ni       9.21370928       6.82188300       6.80456575        1       1.00000000      -0.00652895      -0.06571253      -0.00860385
Pt      11.73963137       6.81938560       6.86916513        1       0.00000000      -0.04781997      -0.05741950       0.06837550
