64
Lattice="10.364068598715319 -0.01784805228159569 0.016023531979389237 5.166577432673728 8.888097865889252 -0.012842882756946183 0.0 0.0 21.58582979603962" Properties=species:S:1:pos:R:3:tags:I:1:initial_magmoms:R:1:forces:R:3 unique_id=e65c9a9f6e0d47c594a44ab66a011943 stress="0.0056026924978260775 -0.00010755940394769083 0.0002671757112695388 -0.00010755940394769083 0.005580761054054214 3.537762110493756e-05 0.0002671757112695388 3.537762110493756e-05 -0.002013872863119423" energy=-376.60588076719455 pbc="T T T"
Ni       0.00038988       0.01867519       0.12966325        1       1.00000000       0.10764199      -0.00667598      -0.15264731
Ni       2.59016440       0.00103765       0.16199669        2       1.00000000      -0.03760444       0.02604974      -0.06118713
Ni       5.17724959      -0.02008744       0.11894243        1       1.00000000       0.00310338       0.18827205      -0.30950508
Ni       7.78041584      -0.05496056       0.14441963        1       1.00000000      -0.10970965      -0.09806137      -0.20118690
Ni       1.26314044       2.22628313       0.13158878        1       1.00000000      -0.09197676       0.02846135       0.12900452
Pt       3.82177706       2.22173650       0.06514314        1       0.00000000      -0.01697954      -0.01590880      -0.00078844
Pt       6.49736864       2.16561916       0.14916255        1       0.00000000       0.05737670      -0.08252908      -0.47970083
Ni       9.10359154       2.21069631       0.10597818        1       1.00000000       0.07610611       0.11534091      -0.03355494
Ni       2.56594526       4.46051016       0.00000000        0       1.00000000      -0.07081606      -0.04443143       0.17734479
Ni       5.16757091       4.44514428       0.10313591        1       1.00000000       0.16825786      -0.07319748      -0.29319980
Pt       7.84442317       4.44737041       0.05898676        1       0.00000000       0.02699329      -0.01677636       0.00176434
Ni      10.38072275       4.42543131       0.02875420        0       1.00000000       0.03941486      -0.10052512       0.25331897
Ni       3.84042259       6.68273893       0.02691167        0       1.00000000      -0.02767751       0.12543315       0.31114091
Pt       6.44426657       6.70983750       0.13993334        1       0.00000000      -0.01576614       0.03446617      -0.60087444
Ni       9.07972519       6.66910201       0.02417492        0       1.00000000      -0.08924652      -0.00397989       0.14461838
Ni      11.66501597       6.65247886       0.01144316        0       1.00000000       0.10489939       0.01365208       0.24018786
Ni       1.30776006       0.75600337       2.12021226        3       1.00000000       0.01274784       0.10288955       0.02086289
Ni       3.87819047       0.75335805       2.15920450        4       1.00000000       0.01664454       0.06941872       0.18626296
Ni       6.47469962       0.73994805       2.20118603        4       1.00000000      -0.02007724       0.12266675       0.27036675
Pt       9.07781365       0.76723616       2.14689566        3       0.00000000      -0.00851778       0.14245897       0.15062129
Ni       2.57027802       2.93404860       2.15873395        4       1.00000000      -0.05875529      -0.00875107       0.07896131
Ni       5.17177565       2.92648808       2.19660526        4       1.00000000      -0.10412452      -0.11819139       0.22628533
Ni       7.80046526       2.96228061       2.19972968        4       1.00000000       0.17794322       0.06730742       0.17092698
Ni      10.35965529       2.93478487       2.17620815        4       1.00000000       0.00275043       0.00409971       0.15652571
Pt       3.89183542       5.15920675       2.10629057        3       0.00000000      -0.01284917      -0.06364048      -0.04102949
Ni       6.50784452       5.16492595       2.16926053        4       1.00000000       0.11659499      -0.05282684       0.14958384
Ni       9.03888719       5.14774271       2.19177684        4       1.00000000      -0.06529042      -0.11598734       0.23843850
Pt      11.63382730       5.10115721       2.13096233        3       0.00000000      -0.05509744      -0.09782750       0.02249537
Ni       5.16319995       7.41834443       2.13769387        3       1.00000000      -0.12435624       0.03174916       0.04927940
Ni       7.76521921       7.39599199       2.15017788        4       1.00000000       0.05828680      -0.04041068       0.08330874
Pt      10.33163373       7.40470742       2.06236148        3       0.00000000       0.00308907      -0.12276135      -0.10220983
Ni      12.95181131       7.38702548       2.12145653        3       1.00000000       0.00579357      -0.03679987      -0.03544361
Ni      -0.00697137       1.53973363       4.29689497        6       1.00000000       0.02551191       0.16275351      -0.20894644
Pt       2.60982771       1.57384826       4.24058037        5       0.00000000      -0.02841390       0.01170833      -0.08229425
Ni       5.18042803       1.49274597       4.29348725        6       1.00000000      -0.01154557       0.05712222      -0.33041888
Ni       7.79817670       1.48364888       4.30041026        6       1.00000000       0.08808097      -0.00958378      -0.27533235
Ni       1.29560453       3.70352392       4.31668671        6       1.00000000      -0.01415922      -0.05510819      -0.19481155
Ni       3.86129751       3.69248054       4.32477114        6       1.00000000       0.01214026       0.03776593      -0.19985573
Pt       6.52969642       3.66156494       4.22109444        5       0.00000000       0.01681914      -0.05942129      -0.07388941
Ni       9.08042095       3.66147475       4.30192533        6       1.00000000       0.06289056      -0.17311211      -0.32779715
Ni       2.57159642       5.86689214       4.36501867        7       1.00000000      -0.02293809      -0.13830143      -0.04942246
Pt       5.14740045       5.87144858       4.27412100        6       0.00000000      -0.01046889      -0.03392530      -0.09046826
Ni       7.79742103       5.86460452       4.30143072        6       1.00000000       0.01865422      -0.05802090      -0.34657252
Pt      10.35045040       5.80271875       4.39733016        7       0.00000000       0.01282112      -0.00445354      -0.06508654
Pt       3.86266790       8.14452920       4.26372081        6       0.00000000      -0.02821309       0.05255443       0.02392286
Pt       6.46947892       8.16359981       4.19813849        5       0.00000000      -0.07513644       0.18874661      -0.19308517
Pt       9.05035310       8.11660436       4.26952855        6       0.00000000      -0.08435273       0.01775976      -0.06721567
Pt      11.66227640       8.14168833       4.26827630        6       0.00000000       0.02094100       0.02482062      -0.08421240
Pt       0.00733004      -0.02917143       6.55297669       10       0.00000000       0.15821800       0.16640608       0.29041915
Pt       2.62237011      -0.00509828       6.57939342       10       0.00000000      -0.05998100       0.04633382       0.32976159
Pt       5.18191811      -0.08522620       6.56073922       10       0.00000000       0.04386922       0.00981648       0.41546713
Pt       7.77498453      -0.10685196       6.58582980       10       0.00000000      -0.08222616       0.13378144       0.34916868
Pt       1.33703944       2.33319821       6.51304245        9       0.00000000      -0.08776998       0.03246471      -0.03829014
Ni       3.88228234       2.22660584       6.41877339        8       1.00000000       0.04077721      -0.05731721       0.06897792
Pt       6.46359803       2.20804625       6.43325195        8       0.00000000      -0.03087563      -0.13865610       0.57472402
Pt       9.08190082       2.28800279       6.47848778        9       0.00000000      -0.00211734      -0.02888782       0.06802348
Ni       2.56886593       4.48117935       6.46612214        9       1.00000000      -0.08803896       0.13200500      -0.29883964
Pt       5.07471161       4.41065142       6.52635249        9       0.00000000      -0.05943064      -0.07966809       0.17092221
Ni       7.81648110       4.44616174       6.41288150        8       1.00000000       0.03738105       0.05947472      -0.04641283
Ni      10.37100686       4.46352618       6.50723891        9       1.00000000       0.01299318      -0.01484008      -0.13440178
Ni       3.83635191       6.61151454       6.49019941        9       1.00000000      -0.04078624      -0.02939794      -0.18841455
Pt       6.52890092       6.58127942       6.45028720        9       0.00000000       0.10629691      -0.10614272       0.56029335
Ni       9.09424817       6.58151800       6.50157676        9       1.00000000      -0.04916450      -0.04566636      -0.09920893
Ni      11.66660884       6.56519460       6.50653834        9       1.00000000       0.04942429      -0.07399448      -0.20667478
