64
Lattice="10.27546957967501 -0.0005458022797615825 -0.0003720764982918106 5.1372621111977885 8.839803724583142 0.010599023751645759 0.0 0.0 21.513460031117454" Properties=species:S:1:pos:R:3:tags:I:1:initial_magmoms:R:1:forces:R:3 unique_id=1d4c34ad02c74d099086435e0edb4c8b energy=-372.7379698426217 stress="0.005421904542837674 -4.1654333488401395e-05 0.00011735046577689795 -4.1654333488401395e-05 0.0049411036348286025 0.00019338014945217958 0.00011735046577689795 0.00019338014945217958 -0.002289628277701442" pbc="T T T"
Ni       0.01190877       0.01623363       0.13403956        1       1.00000000       0.11401063      -0.00881560      -0.30494354
Ni       2.56337835       0.00025174       0.16261339        2       1.00000000       0.00677015       0.00094500      -0.20831726
Ni       5.13735535      -0.00499332       0.10488214        1       1.00000000       0.00230315       0.21020063      -0.29421310
Ni       7.71144183      -0.00640849       0.09697999        1       1.00000000      -0.06766051       0.10032161      -0.45904197
Ni       1.25268446       2.22221542       0.14394996        1       1.00000000      -0.05480207       0.07392140      -0.00040390
Pt       3.80830691       2.23068132       0.13620683        1       0.00000000       0.00731150      -0.00483252      -0.55311579
Pt       6.47483446       2.23066869       0.05816218        1       0.00000000       0.04194129      -0.03298651       0.01047060
Ni       9.02596172       2.25167396       0.09483501        1       1.00000000       0.02685097       0.19704246      -0.12785519
Ni       2.56308837       4.44806357       0.02757516        0       1.00000000       0.00573129      -0.01279033       0.24812243
Ni       5.12360867       4.44306061       0.05442918        1       1.00000000      -0.04066525      -0.02329197       0.27290343
Ni       7.74236745       4.42740462       0.06099154        1       1.00000000       0.12121272       0.04925415       0.33412675
Ni      10.26145087       4.41186405       0.03371411        0       1.00000000      -0.09572653      -0.02967388       0.31994673
Ni       3.84607216       6.61190890       0.02643044        0       1.00000000       0.08094164      -0.04999776       0.10156266
Pt       6.42014732       6.61940928       0.05917316        1       0.00000000       0.05214783       0.05549411      -0.05497694
Ni       8.98945328       6.60990872       0.10921506        1       1.00000000      -0.14010618      -0.16842716      -0.29138440
Ni      11.56140654       6.61532138       0.00000000        0       1.00000000      -0.04603829      -0.05731595       0.04654406
Ni       1.30038514       0.75996090       2.09911879        3       1.00000000       0.05367389       0.08989095       0.04940567
Ni       3.84969768       0.75074709       2.14759093        3       1.00000000       0.07428451      -0.00011246       0.14718684
Ni       6.40063825       0.77972699       2.18314773        4       1.00000000      -0.05389757       0.14381279       0.32197824
Pt       9.01724831       0.82657559       2.12784853        3       0.00000000      -0.06986070       0.07507222       0.11943700
Ni       2.56310432       2.96018689       2.15352713        4       1.00000000       0.03730021       0.08309417       0.02580445
Ni       5.13963422       2.96622624       2.18637594        4       1.00000000      -0.01619227       0.01134495       0.15861953
Ni       7.72023059       2.99606523       2.15843220        4       1.00000000       0.05496915       0.13935548       0.11016721
Ni      10.26729470       2.95694750       2.15315984        4       1.00000000      -0.03030396       0.05002109       0.20290023
Ni       3.88561439       5.11248634       2.12200897        3       1.00000000       0.08210373      -0.17726664      -0.10240609
Ni       6.43681266       5.13926968       2.14225544        3       1.00000000       0.04995205      -0.07318869       0.02006034
Ni       8.94837057       5.11879851       2.15267864        4       1.00000000      -0.08442629      -0.12489248       0.10907673
Pt      11.54652169       5.06811838       2.15382787        4       0.00000000      -0.03872426      -0.05973562       0.08070253
Ni       5.15613791       7.34730554       2.12621783        3       1.00000000      -0.03001386      -0.10071643       0.02491043
Ni       7.68789870       7.35086917       2.13568510        3       1.00000000       0.00173507      -0.12462829       0.12382217
Pt      10.24300155       7.36452988       2.09668051        3       0.00000000      -0.01889593      -0.08203941       0.08480795
Pt      12.86725944       7.33484635       2.10250945        3       0.00000000       0.09777490      -0.08881909       0.00432967
Ni      -0.02265798       1.54317729       4.27267150        6       1.00000000      -0.02629049       0.15567449      -0.11785674
Pt       2.56314020       1.56686698       4.17609616        5       0.00000000      -0.02727610       0.03085793       0.01238423
Ni       5.18467352       1.48098217       4.24248288        5       1.00000000       0.04525189      -0.08863812      -0.30998648
Ni       7.68938612       1.48638317       4.27064612        6       1.00000000       0.01793382      -0.07006745      -0.20854490
Ni       1.25848484       3.73842393       4.30144988        6       1.00000000      -0.07356033      -0.01078844      -0.03113347
Ni       3.82629275       3.72393580       4.25068011        6       1.00000000      -0.12055683      -0.02825048      -0.30154436
Pt       6.46583494       3.64275761       4.26867700        6       0.00000000       0.03061912      -0.02528478      -0.06822902
Ni       9.02391909       3.71847985       4.26034085        6       1.00000000       0.12013846       0.04076767      -0.23475600
Ni       2.51954442       5.85298329       4.34604670        6       1.00000000      -0.12443670      -0.04840686      -0.08802759
Pt       5.09398621       5.83368149       4.28938022        6       0.00000000      -0.03501759      -0.03664316      -0.18964175
Ni       7.73987237       5.84368316       4.27230692        6       1.00000000       0.10513721      -0.09023833      -0.29765689
Ni      10.30268940       5.84014800       4.31427598        6       1.00000000       0.00231250      -0.04265171      -0.12392087
Pt       3.79346619       8.10855216       4.28378461        6       0.00000000      -0.04739280       0.02661254       0.08488278
Pt       6.42554102       8.08869540       4.20471039        5       0.00000000      -0.01090335       0.06430133      -0.12296643
Pt       9.03771563       8.07746848       4.24809426        5       0.00000000       0.02438574      -0.00642245      -0.04295233
Ni      11.55825720       8.09110190       4.28409819        6       1.00000000      -0.04498644      -0.08251981      -0.22451565
Pt      -0.01322953      -0.05591434       6.50280671        8       0.00000000      -0.02686708       0.14931444       0.41162939
Pt       2.56922633      -0.02425986       6.51346003        8       0.00000000       0.08623728       0.04398932       0.47995682
Pt       5.16726725      -0.00398104       6.45392181        8       0.00000000      -0.00096039       0.07163204       0.37707374
Pt       7.68029940      -0.03906650       6.47517486        8       0.00000000      -0.03403503       0.07028016       0.46379557
Pt       1.27360675       2.32706905       6.45790495        8       0.00000000      -0.00577365      -0.03613843       0.17443017
Pt       3.92043994       2.33487861       6.36903438        7       0.00000000       0.05338755       0.07662587       0.54121668
Ni       6.42618949       2.25008275       6.36288501        7       1.00000000      -0.04702039      -0.02479885       0.27019243
Pt       8.92863725       2.31334712       6.41566531        7       0.00000000       0.05085541      -0.07692399       0.03255947
Ni       2.56874206       4.50414814       6.41074250        7       1.00000000       0.08393246      -0.03469671      -0.31199026
Ni       5.15290059       4.46737434       6.45114013        8       1.00000000       0.06055986       0.00829835      -0.14558721
Ni       7.66012250       4.43093770       6.43143574        7       1.00000000      -0.17572958       0.03224466      -0.17438030
Ni      10.30629349       4.45473583       6.41129876        7       1.00000000       0.06576175      -0.04571054      -0.25231461
Ni       3.82786800       6.55960994       6.44739160        7       1.00000000      -0.00997865      -0.04555160      -0.15041145
Ni       6.40393617       6.56520496       6.37663050        7       1.00000000       0.07314365      -0.06087163       0.16303139
Pt       9.00349859       6.49605847       6.46313809        8       0.00000000      -0.11488477       0.00343964       0.10026635
Ni      11.58805702       6.56797292       6.41355338        7       1.00000000      -0.01768757       0.02032467      -0.23523023
