64
Lattice="10.79632885338443 -0.0007015849244250499 0.0005750944732212597 5.397556836324749 9.34783831861116 0.0001876548437772759 0.0 0.0 21.99339299756376" Properties=species:S:1:pos:R:3:tags:I:1:initial_magmoms:R:1:forces:R:3 unique_id=85943138776f48728ae561b83c49145e stress="0.002541516251278457 1.6444669865513533e-05 -4.739642199327489e-06 1.6444669865513533e-05 0.0025569787137404536 1.8777988674945745e-05 -4.739642199327489e-06 1.8777988674945745e-05 -0.0019468656188725581" energy=-406.59316306918515 pbc="T T T"
Pt       0.01739152       0.02692114       0.00830753        0       0.00000000       0.00404679       0.02754330      -0.15881960
Pt       2.68171158       0.02739439       0.01109816        0       0.00000000      -0.03136350       0.01336614      -0.17288597
Pt       5.39269276       0.00229883       0.00768774        0       0.00000000      -0.04745692       0.04809887      -0.30760398
Pt       8.10220075       0.00429888       0.00800323        0       0.00000000       0.07400723       0.06397274      -0.23403216
Ni       1.34971994       2.33819023       0.00000000        0       1.00000000      -0.00102216      -0.01612865       0.40647925
Pt       4.01602323       2.33661901       0.01153485        0       0.00000000      -0.01535019      -0.02603439      -0.28721683
Pt       6.74924681       2.33557710       0.00790303        0       0.00000000       0.02773129      -0.01561116      -0.24749886
Pt       9.47698616       2.33538501       0.01072521        0       0.00000000       0.00362383      -0.03601393      -0.18695120
Pt       2.68248001       4.64566747       0.01241120        0       0.00000000      -0.01658124      -0.01517193      -0.28844011
Pt       5.39377305       4.67154380       0.00991588        0       0.00000000      -0.04701674      -0.03031668      -0.33965927
Pt       8.10101726       4.67170585       0.00846627        0       0.00000000       0.05509237      -0.05116041      -0.31273412
Pt      10.81248462       4.64524634       0.01301928        0       0.00000000       0.00759865      -0.02657191      -0.27725215
Pt       4.04731787       7.01046819       0.00819094        0       0.00000000       0.01939057       0.02154798      -0.30795582
Pt       6.74693587       7.01724271       0.00925260        0       0.00000000      -0.00257523       0.09902712      -0.22922597
Pt       9.44740388       7.01006540       0.00932785        0       0.00000000      -0.02070106       0.00867587      -0.29351834
Pt      12.14535230       7.00483380       0.01052393        0       0.00000000       0.00370453      -0.05453518      -0.32377205
Pt       1.34631320       0.78067418       2.30859518        1       0.00000000      -0.02901141       0.07990490       0.43847710
Pt       4.04742403       0.77893353       2.31136511        1       0.00000000       0.02358666      -0.00547476       0.54773064
Pt       6.75817373       0.78438896       2.33459918        1       0.00000000       0.02672228       0.02696733       0.58127715
Pt       9.44150246       0.78373313       2.33434937        1       0.00000000      -0.01937225       0.00514527       0.58637152
Pt       2.68547390       3.10534471       2.28377027        1       0.00000000      -0.10404707      -0.08382555       0.40206727
Pt       5.39648246       3.11446219       2.30873949        1       0.00000000      -0.03448764      -0.00329051       0.53152567
Pt       8.10107000       3.10395071       2.33219342        1       0.00000000       0.03955386      -0.02739699       0.58820012
Pt      10.80735729       3.10430966       2.28616979        1       0.00000000       0.08780779      -0.08318649       0.38572542
Pt       4.04884231       5.45253223       2.30941269        1       0.00000000      -0.00052254      -0.01044469       0.56545874
Pt       6.74873302       5.45264137       2.31339835        1       0.00000000       0.01091702      -0.01152128       0.53707183
Pt       9.44498921       5.44879765       2.31250045        1       0.00000000      -0.00918099      -0.03803469       0.57816012
Pt      12.14547672       5.44984520       2.30783346        1       0.00000000      -0.00257334       0.00436632       0.55039954
Pt       5.40794148       7.80181593       2.33447191        1       0.00000000       0.03227745       0.07816085       0.61170204
Pt       8.08495086       7.79854578       2.33266379        1       0.00000000      -0.04606655       0.04976068       0.58505142
Pt      10.79432965       7.79244656       2.31511989        1       0.00000000      -0.02161469       0.02030480       0.56775139
Pt      13.49855888       7.79191477       2.31422991        1       0.00000000       0.03700978       0.00593964       0.53369580
Pt      -0.01149033       1.53329584       4.62557090        2       0.00000000       0.03730917      -0.01066313      -0.47534022
Pt       2.67648404       1.53073186       4.62666569        2       0.00000000      -0.11550295      -0.03407923      -0.51339078
Pt       5.42615420       1.55528104       4.63117434        2       0.00000000      -0.02301822      -0.02285952      -0.51660529
Ni       8.09863923       1.55688634       4.64979317        2       1.00000000       0.05055928      -0.01847100      -0.52507375
Pt       1.34436198       3.88048978       4.62712876        2       0.00000000      -0.04621005      -0.14812402      -0.52091696
Pt       4.05444996       3.89204545       4.63309388        2       0.00000000       0.01469277      -0.04612881      -0.57046875
Pt       6.76469832       3.87060026       4.62826387        2       0.00000000       0.02725026       0.00382614      -0.52174579
Pt       9.42911674       3.86396045       4.63209269        2       0.00000000      -0.00042182      -0.09264932      -0.55189596
Pt       2.70395675       6.23958071       4.63131049        2       0.00000000       0.03179190       0.04868100      -0.54905141
Pt       5.41467984       6.26290843       4.62815411        2       0.00000000       0.02741401       0.08274900      -0.54306715
Pt       8.08049750       6.25556949       4.62753947        2       0.00000000      -0.02043087       0.00140502      -0.53736576
Pt      10.79081240       6.23346489       4.63151585        2       0.00000000      -0.03752379      -0.00202518      -0.57177818
Pt       4.06506783       8.59673988       4.62987976        2       0.00000000       0.04470775       0.06926427      -0.49586974
Ni       6.74575866       8.56908695       4.64702682        2       1.00000000      -0.03342008       0.03306190      -0.54396749
Pt       9.41670504       8.57166202       4.63052854        2       0.00000000      -0.03344844       0.04718028      -0.53004202
Pt      12.16345569       8.59878981       4.63061661        2       0.00000000       0.04955605       0.06328372      -0.53210389
Pt       0.00934862      -0.00052500       6.90734132        3       0.00000000       0.15053213      -0.10685298       0.15167172
Pt       2.68910193      -0.00203898       6.91226550        3       0.00000000      -0.12160486      -0.10403540       0.20465594
Pt       5.39797105      -0.00062587       6.92074583        3       0.00000000      -0.04302689      -0.02430272       0.26314332
Pt       8.10024107       0.00944906       6.90350503        3       0.00000000       0.02689274       0.14776413       0.17074972
Pt       1.34810274       2.33496183       6.99339300        4       0.00000000      -0.01423392       0.00392050      -0.07461058
Pt       4.04538832       2.33324341       6.92591052        3       0.00000000       0.01401856      -0.02416589       0.20342452
Pt       6.75711842       2.33103446       6.90570554        3       0.00000000       0.13764632      -0.07224003       0.21714501
Pt       9.44381788       2.32838411       6.90859431        3       0.00000000      -0.13164964      -0.08589496       0.13891390
Pt       2.69628586       4.67081190       6.93240275        3       0.00000000       0.00163251       0.02683461       0.31463186
Pt       5.40069504       4.67442728       6.92143572        3       0.00000000       0.01249643       0.01761786       0.23510534
Pt       8.09693609       4.67411296       6.92123611        3       0.00000000       0.01407498       0.04316858       0.26224163
Pt      10.79730523       4.66814910       6.93013750        3       0.00000000      -0.02191948       0.01997884       0.26235205
Pt       4.04910048       7.01414972       6.92085447        3       0.00000000      -0.00875521       0.00406725       0.26313729
Pt       6.74792581       7.02177449       6.90733468        3       0.00000000       0.00891257       0.16918418       0.23501927
Pt       9.44525018       7.01152238       6.92448870        3       0.00000000       0.00300143      -0.00873958       0.32304186
Pt      12.14646004       7.01265580       6.92511959        3       0.00000000      -0.00544924       0.00118194       0.29848172
