64
Lattice="10.300028704082251 -0.034679039679257936 0.033513746943854505 5.11998142270004 8.875540030070537 -0.035987741545623016 0.027363859793734253 -0.049728099933311926 8.846297744191636" Properties=species:S:1:pos:R:3:tags:I:1:initial_magmoms:R:1:forces:R:3 unique_id=d55c81be99e440cf8ded474150e9318d stress="0.00023337515275718979 1.2838163512629368e-06 -1.48889307776769e-05 1.2838163512629368e-06 0.0002369322804247273 5.9501625276636185e-06 -1.48889307776769e-05 5.9501625276636185e-06 0.00023333356931374422" energy=-397.73330352409715 pbc="T T T"
Ni       0.04496833       0.02049433       0.16850666        4       1.00000000       0.12664663       0.07636924       0.30454158
Ni       2.53408688      -0.00044762       0.20823317        4       1.00000000      -0.11121905       0.05329825       0.43789114
Pt       5.08393469      -0.06149430       0.13921184        4       0.00000000      -0.06028140      -0.01357597       0.26142281
Pt       7.79282946      -0.11261335       0.17794360        4       0.00000000       0.06033351      -0.10421739       0.33462557
Ni       1.24362800       2.22295062       0.09676878        4       1.00000000      -0.14639876       0.02115443       0.26819229
Pt       3.75887838       2.26922612       0.10588532        4       0.00000000      -0.12619860       0.07697849      -0.11185450
Pt       6.43928042       2.25202441       0.15738219        4       0.00000000       0.03635124       0.07620332       0.22701927
Ni       9.06604889       2.20480783       0.17633275        4       1.00000000       0.09444232       0.02694840       0.22569331
Ni       2.55935402       4.45777316       0.04057331        4       1.00000000       0.05127725       0.03584506      -0.02954698
Ni       5.09548802       4.45851086       0.09171255        4       1.00000000      -0.04978888       0.06643131       0.21476410
Pt       7.79663850       4.45035207       0.09925829        4       0.00000000       0.11359610      -0.02828403      -0.11402350
Ni      10.32035104       4.39472017       0.08097099        4       1.00000000       0.13761421      -0.12398274       0.13478347
Ni       3.83057308       6.60081475       0.07422838        4       1.00000000      -0.01989604      -0.21353845       0.21852044
Pt       6.38275432       6.68082016       0.16192881        4       0.00000000      -0.03802611      -0.01441955       0.00947501
Ni       9.00018371       6.61002184       0.06181229        4       1.00000000       0.02470712      -0.02656719       0.09667685
Ni      11.57827518       6.56591049       0.06201882        4       1.00000000       0.03661922      -0.15328821       0.04193414
Ni       1.32298452       0.72130180       2.20829039        3       1.00000000       0.07064539       0.00419847       0.07806595
Ni       3.81153032       0.74623640       2.23572323        3       1.00000000       0.00221802       0.04742710      -0.02597577
Pt       6.42262207       0.79190203       2.33905823        3       0.00000000      -0.04194634       0.17023472      -0.07977580
Pt       9.11795161       0.75296005       2.28196522        3       0.00000000      -0.02588759       0.07368731       0.03539839
Ni       2.57319383       2.92987407       2.22281861        3       1.00000000      -0.00225248      -0.00297960       0.07448890
Ni       5.09703805       2.99752437       2.25607548        3       1.00000000      -0.22600561       0.14640820       0.00077911
Ni       7.76380313       2.98062277       2.26808826        3       1.00000000       0.14000697       0.11571003       0.00689241
Ni      10.30688092       2.92345097       2.22526383        3       1.00000000       0.12109814       0.10258608       0.07649922
Ni       3.89224122       5.15881260       2.20731136        3       1.00000000       0.11511018      -0.02213409       0.07715691
Ni       6.41021280       5.16188125       2.23806524        3       1.00000000      -0.03980322       0.11399200      -0.10964737
Ni       8.96788587       5.10740892       2.24776466        3       1.00000000      -0.06769455      -0.14808782       0.18934783
Pt      11.63429343       5.07429373       2.16395953        3       0.00000000       0.14679568      -0.07329865       0.05749776
Ni       5.14545037       7.35087577       2.21956073        3       1.00000000       0.07630452      -0.11554562      -0.00602406
Ni       7.65522036       7.37217928       2.21982809        3       1.00000000      -0.20029101      -0.07854527       0.01909316
Pt      10.22419706       7.28254165       2.18228615        3       0.00000000      -0.01084540      -0.04768876      -0.24106287
Ni      12.90843206       7.29672853       2.21531678        3       1.00000000       0.14995268      -0.18148350      -0.00970314
Ni       0.00704850       1.46875298       4.37707034        2       1.00000000       0.05979642       0.01237032       0.02555405
Pt       2.57947569       1.47431817       4.33672691        2       0.00000000      -0.04928065      -0.05527176       0.00708083
Ni       5.13180127       1.48642165       4.39351799        2       1.00000000      -0.10733022       0.10926861      -0.01971003
Ni       7.76866794       1.47579243       4.40944746        2       1.00000000       0.09488442       0.06614142       0.06790930
Pt       1.29497122       3.66904740       4.42324065        2       0.00000000      -0.01766782      -0.00242709       0.01386371
Ni       3.87903295       3.70732962       4.39445474        2       1.00000000      -0.03081384       0.10743281      -0.12469376
Pt       6.42370552       3.72132281       4.30536566        2       0.00000000      -0.04716511      -0.10970439       0.00043969
Ni       8.98808081       3.63435771       4.37317070        2       1.00000000      -0.04460251      -0.09901711      -0.25084987
Ni       2.62041866       5.85761372       4.39874359        2       1.00000000       0.09892394      -0.15460843      -0.07760187
Ni       5.12556328       5.85681898       4.34131153        2       1.00000000      -0.01946240      -0.10999468      -0.22775605
Ni       7.69430498       5.85609234       4.34689681        2       1.00000000      -0.12320368      -0.01702821      -0.27279871
Pt      10.23984081       5.80603951       4.46308243        2       0.00000000      -0.12119854      -0.08233000      -0.01367684
Pt       3.93307794       8.03819911       4.29604379        2       0.00000000       0.00055728      -0.07324601       0.14180662
Ni       6.41471383       8.07614089       4.31548470        2       1.00000000      -0.03227587      -0.08339981      -0.15827177
Pt       8.90676303       8.06793698       4.31065292        2       0.00000000      -0.05686357       0.01472274       0.07901413
Pt      11.60880999       8.05141901       4.33596234        2       0.00000000       0.09519770      -0.14191705       0.07913712
Pt       0.03775120      -0.02500377       6.58803217        1       0.00000000      -0.02293573       0.03154334       0.09501738
Pt       2.58742151      -0.00326443       6.63799954        1       0.00000000       0.05357860       0.09043551       0.23921413
Pt       5.14746040      -0.08545931       6.52108313        1       0.00000000       0.01259287      -0.06910783      -0.39176837
Pt       7.75679805      -0.11609911       6.55229302        1       0.00000000      -0.00532118      -0.02115811      -0.26418093
Ni       1.32407749       2.24684284       6.56552107        1       1.00000000       0.09899833       0.19018874      -0.00501774
Ni       3.84582261       2.24562187       6.48231999        1       1.00000000      -0.09256143       0.21057432      -0.25605813
Pt       6.40196332       2.25065615       6.48953576        1       0.00000000      -0.05626504       0.21850924      -0.26917915
Pt       9.08038186       2.26702833       6.56068440        1       0.00000000       0.07485393       0.16298152       0.09997726
Ni       2.59304551       4.42118847       6.54123407        1       1.00000000       0.04614129       0.06982248      -0.15014536
Ni       5.08819425       4.40387032       6.53531389        1       1.00000000      -0.25331668       0.03194233      -0.17654633
Ni       7.75950841       4.41956727       6.47763741        1       1.00000000       0.10549382       0.09277248      -0.33116820
Ni      10.32695515       4.41471768       6.59500734        1       1.00000000       0.10063324       0.14422336       0.05206646
Ni       3.83167961       6.54544089       6.52214243        1       1.00000000      -0.05567358      -0.16536765      -0.16172724
Pt       6.42363132       6.51773560       6.44584981        1       0.00000000      -0.06511803      -0.05192015      -0.21390153
Ni       9.01889506       6.55150730       6.56645858        1       1.00000000      -0.07207419      -0.04851986      -0.07118169
Ni      11.59582863       6.52493038       6.57139032        1       1.00000000       0.09429408      -0.12774666      -0.12799273
