64
Lattice="9.834021573282675 -0.0027147395992784206 0.015781872401059004 4.9146597531837015 8.518892935201311 0.015475212405746992 0.012885844856102252 0.00715052418013483 8.408910243282413" Properties=species:S:1:pos:R:3:tags:I:1:initial_magmoms:R:1:forces:R:3 unique_id=1e9722943381489492d2c35cfdf63a2d stress="0.0027474735246330664 -2.8078792932021656e-06 -1.7275717719685826e-06 -2.8078792932021656e-06 0.0027448793956907844 -5.681394749292442e-07 -1.7275717719685826e-06 -5.681394749292442e-07 0.0024372464477662725" energy=-376.5134009295106 pbc="T T T"
Ni      -0.00070593       0.00000638       0.09636838        4       1.00000000      -0.00571954      -0.00017960      -0.02500012
Ni       2.46238684      -0.00349645       0.11659445        4       1.00000000       0.02528257       0.00878271       0.03186689
Ni       4.92353507      -0.00351279       0.11969341        4       1.00000000       0.01231980       0.00740638       0.02018525
Ni       7.38028941       0.00076495       0.12289090        4       1.00000000       0.00821120       0.00997281       0.01994220
Ni       1.22792052       2.13498628       0.11723754        4       1.00000000       0.01871524       0.01814653       0.03305971
Ni       3.69337452       2.13228304       0.25423006        4       1.00000000       0.01511450       0.00427068       0.20118221
Ni       6.15265947       2.13567990       0.11662662        4       1.00000000       0.00082187       0.03109454      -0.01039550
Ni       8.60825083       2.13047399       0.12168599        4       1.00000000       0.01232329       0.00848994       0.02703226
Ni       2.45830792       4.26751664       0.11104249        4       1.00000000       0.00924056       0.01025852      -0.00870805
Ni       4.92328671       4.26286628       0.12182176        4       1.00000000       0.01554530      -0.00780562       0.00696614
Ni       7.37811043       4.26092538       0.12213255        4       1.00000000       0.01143784       0.00814961       0.01823987
Ni       9.83593013       4.25948576       0.12581704        4       1.00000000       0.01052851       0.00563991       0.03263315
Ni       3.69248639       6.38972149       0.10894014        4       1.00000000       0.02394807      -0.00608605      -0.03794597
Ni       6.14888135       6.38943874       0.12062930        4       1.00000000       0.01461812       0.00187230       0.00912239
Ni       8.60433579       6.38775159       0.11983389        4       1.00000000      -0.00096687      -0.00225465      -0.00255415
Ni      11.06559747       6.38807027       0.13569850        4       1.00000000       0.01198995       0.00263933       0.02534317
Ni       1.20375413       0.69499269       2.08252364        3       1.00000000       0.00011477       0.00142030       0.02531570
Ni       3.71128216       0.68170389       2.11184297        3       1.00000000       0.01301860      -0.06156979       0.12078924
Ni       6.15649945       0.73335501       2.09876433        3       1.00000000       0.00673389       0.02200832       0.00525334
Ni       8.60634776       0.71010038       2.13589979        3       1.00000000      -0.00762921      -0.00621795       0.00169757
Ni       2.44673420       2.88058034       2.11210762        3       1.00000000      -0.04411342       0.04703853       0.10581824
Ni       4.93682573       2.85819799       2.14965128        3       1.00000000       0.03889335       0.03873338       0.09144989
Ni       7.38193508       2.84666814       2.13980265        3       1.00000000       0.01087822       0.01768740       0.00127387
Ni       9.82832203       2.84325587       2.14593570        3       1.00000000      -0.00881456       0.00288442       0.02692405
Ni       3.69600813       4.97482781       2.12856545        3       1.00000000       0.01470183      -0.00187214      -0.01379620
Ni       6.14999288       4.97229077       2.14159849        3       1.00000000       0.01008564       0.00756099      -0.00261588
Ni       8.60223724       4.96537838       2.14425260        3       1.00000000      -0.00947077      -0.00683873       0.00528246
Ni      11.06159894       4.97151641       2.14580836        3       1.00000000      -0.00761828       0.02093649       0.01722055
Ni       4.91865281       7.09432430       2.13378850        3       1.00000000       0.00131565      -0.00897680      -0.02619690
Ni       7.37044684       7.08855222       2.14154156        3       1.00000000      -0.01218402      -0.01812978       0.01004845
Ni       9.81918821       7.07943252       2.11385296        3       1.00000000      -0.00253648      -0.02897911       0.00695041
Ni      12.31783237       7.08573049       2.11411723        3       1.00000000       0.02140059      -0.00633350      -0.00693623
Ni      -0.04973011       1.42593404       4.17179647        2       1.00000000      -0.00261738      -0.00331450      -0.05337905
Pt       2.43234187       1.41206765       4.14088653        2       0.00000000       0.00276718      -0.00148523       0.07900268
Ni       4.95879926       1.46215106       4.15859891        2       1.00000000      -0.01042596       0.02200021       0.04088683
Ni       7.40544671       1.46080452       4.18076619        2       1.00000000      -0.01156887      -0.00198915      -0.06038567
Ni       1.20353524       3.59073626       4.18048916        2       1.00000000      -0.02600895       0.00150472      -0.01932961
Ni       3.71547774       3.60350059       4.16077115        2       1.00000000       0.00173627      -0.01821568       0.03487296
Ni       6.16390085       3.56822751       4.18581737        2       1.00000000       0.01379563       0.01880691      -0.02107521
Ni       8.60177713       3.55567208       4.19031897        2       1.00000000      -0.01332185      -0.00104576      -0.03221207
Ni       2.48864471       5.65231377       4.17569895        2       1.00000000       0.00514328       0.00074110      -0.06946368
Ni       4.92836898       5.68259707       4.17849305        2       1.00000000      -0.00517553      -0.00695921      -0.06749648
Ni       7.37194033       5.66700841       4.18929840        2       1.00000000      -0.01590517      -0.01983247      -0.03851365
Ni       9.81231223       5.64120013       4.19376464        2       1.00000000      -0.00840093      -0.00051602      -0.03864061
Ni       3.73484708       7.80745183       4.18332342        2       1.00000000      -0.00495930      -0.00757047      -0.06809382
Ni       6.12219381       7.76018343       4.18589752        2       1.00000000       0.00090015      -0.00273010      -0.06466917
Ni       8.58074430       7.75784524       4.19647431        2       1.00000000      -0.01769147      -0.03717533      -0.02509158
Pt      11.07864688       7.80216263       4.18934430        2       0.00000000      -0.00754217       0.00485177      -0.00644094
Ni       0.00187983      -0.00191044       6.20162987        1       1.00000000       0.00268549      -0.00555422      -0.07457963
Ni       2.43538133      -0.05838412       6.23422911        1       1.00000000      -0.01832782      -0.04561441      -0.00467405
Ni       4.93011601      -0.03600086       6.24581604        1       1.00000000      -0.02305762      -0.02585023      -0.01714086
Ni       7.41486978       0.01061935       6.24765155        1       1.00000000       0.03293634       0.00318952      -0.01373241
Ni       1.16773891       2.14470543       6.23375476        1       1.00000000      -0.04675276       0.01718385      -0.00231404
Pt       3.71950013       2.15680468       6.32212494        1       0.00000000       0.01136690       0.00986522       0.23719854
Ni       6.21777654       2.13938821       6.21111501        1       1.00000000       0.02181243       0.00763428      -0.06441610
Ni       8.61090056       2.13822117       6.22201089        1       1.00000000      -0.00685950       0.00750373      -0.03207396
Ni       2.43886310       4.30878118       6.20722451        1       1.00000000      -0.01615256       0.00712279      -0.06796517
Ni       4.95641495       4.32013194       6.20982746        1       1.00000000       0.01279840       0.02302792      -0.04925293
Ni       7.38869928       4.26672953       6.21800577        1       1.00000000       0.00243678       0.00323868      -0.01984112
Ni       9.82430831       4.26255996       6.22600333        1       1.00000000      -0.03388656      -0.00254250      -0.01878450
Ni       3.69743937       6.39887706       6.20968051        1       1.00000000      -0.00684145       0.01056114      -0.07992053
Ni       6.14989589       6.38714892       6.21813481        1       1.00000000      -0.00945325      -0.00844801      -0.04176982
Ni       8.60426503       6.37147186       6.22389768        1       1.00000000      -0.01711981      -0.03999721      -0.04236002
Ni      11.06665024       6.36259231       6.26177501        1       1.00000000      -0.01449619      -0.02814072      -0.00779235
