64
Lattice="10.130088718871537 -0.034407142598723114 0.057456246333161404 5.0352468998736954 8.782016763645958 0.0581880602675499 0.0 0.0 21.45969326064542" Properties=species:S:1:pos:R:3:tags:I:1:initial_magmoms:R:1:forces:R:3 unique_id=60ed10bd20c44addb18d67449316cc33 energy=-368.31830976724007 stress="0.0016398075325513625 -2.6838211758402035e-05 0.00048771016015258426 -2.6838211758402035e-05 0.0017471787480921163 0.0001476703262148148 0.00048771016015258426 0.0001476703262148148 -0.005142043922407248" pbc="T T T"
Ni       0.04555886       0.02510838       0.06109046        1       1.00000000       0.11175127       0.05740762      -0.84417186
Ni       2.53026712      -0.04364196       0.13780743        1       1.00000000       0.02333903      -0.05765577      -0.34213073
Ni       5.05962036      -0.06462076       0.01195926        0       1.00000000      -0.11512231      -0.05781007       0.12145385
Ni       7.59285586      -0.02274266       0.00000000        0       1.00000000       0.03318545      -0.03386903      -0.11638235
Ni       1.22372107       2.22286629       0.04248742        0       1.00000000       0.06830764      -0.00117334       0.16763558
Pt       3.78987799       2.18792453       0.13228189        1       0.00000000      -0.01766393      -0.01652988      -0.81886090
Ni       6.37205138       2.21196111       0.03959336        0       1.00000000      -0.05774751       0.11966426       0.01276765
Ni       8.86919701       2.23071890       0.03148330        0       1.00000000       0.04109015       0.04920888       0.02721611
Ni       2.48787644       4.42293773       0.05407099        1       1.00000000       0.05617462      -0.02310891       0.21191622
Ni       5.05211835       4.39896232       0.14673976        1       1.00000000      -0.12545607      -0.04273238      -0.57506942
Ni       7.63409686       4.36548637       0.04157276        0       1.00000000       0.11423353       0.06572587       0.01037092
Ni      10.12091771       4.37043649       0.09417059        1       1.00000000      -0.02560765       0.09700922       0.13219874
Ni       3.77960237       6.56021699       0.01157959        0       1.00000000       0.02660484      -0.04367786       0.00851782
Ni       6.35054170       6.57984066       0.00969009        0       1.00000000       0.09155906       0.02909304       0.04500763
Ni       8.85057640       6.56160039       0.17696017        2       1.00000000      -0.02404142      -0.05747186      -0.16204045
Ni      11.34308878       6.53641968       0.05213509        1       1.00000000      -0.09723907      -0.03010133       0.17246540
Ni       1.32133160       0.77164242       2.06176574        3       1.00000000       0.08444374       0.13081535       0.09091848
Ni       3.77858572       0.66507138       2.11816880        3       1.00000000      -0.01154396      -0.14829626       0.11354383
Pt       6.24637187       0.73662503       2.09169927        3       0.00000000       0.03024968      -0.00057198       0.00764204
Pt       8.91749101       0.80334544       2.08852748        3       0.00000000      -0.07269720      -0.01803163       0.04218495
Ni       2.50823995       2.97193647       2.10562061        3       1.00000000      -0.04363326       0.06386927       0.06570272
Ni       5.02754837       2.93777035       2.16241414        4       1.00000000      -0.04392547       0.02401669       0.19709257
Ni       7.62644090       2.94353298       2.08759650        3       1.00000000      -0.00427398       0.04204932       0.00767709
Ni      10.16630247       2.95853388       2.11323837        3       1.00000000       0.03781135       0.06416288       0.00617669
Ni       3.76008255       5.06734096       2.13386015        3       1.00000000      -0.01990201      -0.03386681       0.11054928
Pt       6.39468770       5.10159902       2.09829300        3       0.00000000       0.11324942      -0.00503758       0.08999637
Ni       8.91218425       5.12673684       2.13344294        3       1.00000000       0.07580904      -0.00683188       0.04112450
Ni      11.34766537       5.06753622       2.12877683        3       1.00000000      -0.03401915      -0.00287424      -0.00911927
Pt       5.12102109       7.31501395       2.10793450        3       0.00000000      -0.00035944      -0.02532884       0.02712073
Ni       7.65194578       7.32785596       2.17662113        4       1.00000000       0.02754308      -0.00174776       0.21658386
Ni      10.05313474       7.26464642       2.17733141        4       1.00000000       0.00829292      -0.00162061       0.08141009
Pt      12.57464384       7.20222228       2.14678592        3       0.00000000       0.03962328       0.01875747       0.00375416
Ni       0.03726124       1.48156621       4.23065586        6       1.00000000       0.00063276      -0.00637230      -0.10646123
Pt       2.55430746       1.42290504       4.13572766        5       0.00000000      -0.10047912      -0.08479938      -0.09598498
Ni       5.06010610       1.40622397       4.24534655        6       1.00000000      -0.08102113      -0.13779107      -0.13241533
Pt       7.58494966       1.41845868       4.34991484        7       0.00000000      -0.03580676      -0.05418922       0.04612039
Pt       1.31971524       3.73439609       4.23316835        6       0.00000000       0.01249834      -0.01058317       0.00640752
Ni       3.80197061       3.72119018       4.20444364        6       1.00000000      -0.04718680       0.07564883      -0.18810196
Pt       6.27879753       3.66862840       4.27936689        7       0.00000000      -0.00989370       0.00594128       0.01290276
Pt       8.89081438       3.72101912       4.28086601        7       0.00000000      -0.02746585       0.09897286       0.02176363
Ni       2.52976067       5.86078482       4.29161743        7       1.00000000      -0.00102065      -0.02372278      -0.03926122
Ni       5.06367269       5.86475998       4.27317001        7       1.00000000       0.06426361      -0.01396491      -0.09839620
Ni       7.60497228       5.91808831       4.27398867        7       1.00000000       0.02206294       0.08004987      -0.06737008
Ni      10.16118816       5.90443507       4.25609339        7       1.00000000      -0.00995783       0.03660661      -0.14923214
Pt       3.78252301       7.99227297       4.30549110        7       0.00000000      -0.03184658      -0.05851573      -0.08576654
Ni       6.35790798       8.00845900       4.26963160        7       1.00000000       0.06943372      -0.07152010      -0.09160877
Ni       8.89112600       8.01085279       4.25425156        7       1.00000000      -0.04084010      -0.03210272      -0.10893075
Ni      11.32585098       7.99089379       4.35053005        8       1.00000000      -0.05059072      -0.05705799      -0.07334998
Pt      -0.03376720       0.04197502       6.39841354       10       0.00000000       0.10796179       0.09919146       0.43759752
Pt       2.57727780      -0.02949632       6.40009858       10       0.00000000       0.01393802      -0.08934048       0.21398875
Ni       5.16254592      -0.01595042       6.33399586        9       1.00000000      -0.10284323      -0.03177553      -0.11399047
Ni       7.56016312      -0.04249602       6.40948892       10       1.00000000       0.04242930      -0.05044456       0.16946444
Ni       1.25324961       2.25838699       6.36433115       10       1.00000000      -0.00637731      -0.08143071      -0.03941952
Pt       3.84376936       2.23303541       6.29034861        9       0.00000000       0.16995434       0.17323057       0.90513095
Ni       6.38797246       2.17446103       6.42026729       10       1.00000000      -0.16930804       0.07918456       0.20251715
Ni       8.88007143       2.22258410       6.41894167       10       1.00000000       0.04819789       0.01583187       0.04690421
Ni       2.50785928       4.46186745       6.37583696       10       1.00000000       0.09172042       0.01435054      -0.07951897
Pt       5.07113389       4.50076278       6.45969326       11       0.00000000      -0.21610652      -0.11158348       0.43924162
Ni       7.62392670       4.36693142       6.41965534       10       1.00000000       0.03022536       0.01544476       0.08344785
Ni      10.18269842       4.36141804       6.44882956       10       1.00000000      -0.02464317       0.02501278      -0.08977596
Ni       3.74523185       6.59597780       6.38829881       10       1.00000000      -0.04850191      -0.00098492       0.12821151
Ni       6.33788427       6.59325332       6.35651672       10       1.00000000       0.05827951       0.07658198       0.01425450
Pt       8.93557342       6.50915311       6.42067897       10       0.00000000       0.04090477       0.03446628      -0.11100869
Ni      11.44479057       6.57561804       6.39475768       10       1.00000000      -0.05864904      -0.06777702      -0.20061227
