64
Lattice="10.705287773806083 0.0013731238580336946 -0.005383289764773002 5.353833047046641 9.27942246416574 0.011987273771157644 0.0 0.0 21.965885252056363" Properties=species:S:1:pos:R:3:tags:I:1:initial_magmoms:R:1:forces:R:3 unique_id=5a28abdc0f4c4469827603d9a48ec470 stress="0.005299618398872531 7.695109708573091e-06 -6.0172608999687775e-05 7.695109708573091e-06 0.0054365936621303245 -4.889268549995743e-06 -6.0172608999687775e-05 -4.889268549995743e-06 -0.0012737373131033684" energy=-399.29130007768015 pbc="T T T"
Ni       0.00385997      -0.01487119       0.12006089        1       1.00000000      -0.04527951      -0.04282567       0.19244609
Pt       2.61216925      -0.05481416       0.12733846        1       0.00000000      -0.00220330      -0.15201119      -0.40962038
Pt       5.37155723       0.03010692       0.09323933        1       0.00000000      -0.08393945      -0.08712206      -0.46785194
Pt       8.04803430       0.02802059       0.00000000        0       0.00000000       0.04390658      -0.12221534       0.07136126
Pt       1.31464278       2.27871728       0.11130284        1       0.00000000       0.02703860      -0.04552679      -0.33287903
Pt       4.04820907       2.31549253       0.10963527        1       0.00000000      -0.12018840      -0.01802099      -0.46577567
Ni       6.69889138       2.32025122       0.04219201        0       1.00000000      -0.00571720       0.01949805       0.38517193
Pt       9.34043088       2.29476995       0.01061842        0       0.00000000       0.07673792       0.05769378       0.06942374
Pt       2.68529892       4.65222876       0.10152872        1       0.00000000       0.08865771       0.03285663      -0.26292542
Pt       5.38548127       4.64897518       0.11485954        1       0.00000000      -0.08210102       0.12832708      -0.42608657
Pt       7.99734448       4.63083662       0.10883567        1       0.00000000       0.05083970       0.06967556      -0.39329656
Pt      10.69794795       4.64123820       0.09566124        1       0.00000000      -0.05535269      -0.01905629      -0.23717742
Pt       4.09450824       7.01838276       0.13634426        1       0.00000000       0.19541313       0.07955052      -0.12701063
Ni       6.68349515       6.98024553       0.14659760        1       1.00000000      -0.00396959       0.05250637       0.24488334
Pt       9.31740025       6.97044802       0.13079025        1       0.00000000      -0.14231357       0.05827240      -0.24393584
Pt      12.05559707       6.97324092       0.03480139        0       0.00000000       0.04509946       0.05575065       0.09621532
Pt       1.31495750       0.68812152       2.33137967        2       0.00000000      -0.09357156      -0.10047449       0.23422504
Pt       3.98500583       0.73862376       2.36193817        3       0.00000000      -0.04650943      -0.06918059       0.41633308
Pt       6.70593240       0.78025895       2.34534150        2       0.00000000       0.09370561      -0.00905503       0.30315059
Pt       9.39533470       0.73346779       2.32563167        2       0.00000000      -0.00786166      -0.07210220       0.19578469
Pt       2.66060539       3.09788252       2.38429269        3       0.00000000      -0.01972550      -0.01978202       0.38306297
Pt       5.36786235       3.10396829       2.35436835        3       0.00000000       0.09423727       0.03739859       0.30453381
Pt       8.02588715       3.09214331       2.34972663        2       0.00000000       0.01643087      -0.03739231       0.30512502
Pt      10.70772797       3.09607275       2.38940681        3       0.00000000      -0.06707969      -0.04586435       0.37404562
Pt       4.02487191       5.45618261       2.38359085        3       0.00000000       0.00176229       0.03390988       0.32110028
Pt       6.69083296       5.52657141       2.33466251        2       0.00000000       0.00238292       0.21422506       0.26857146
Pt       9.35632017       5.44891067       2.39124680        3       0.00000000       0.01277971      -0.03769663       0.36068568
Pt      12.04194249       5.42821341       2.48145167        4       0.00000000      -0.00165116       0.03436256       0.60512009
Ni       5.37988484       7.74030215       2.32010587        2       1.00000000       0.08168392       0.04753408       0.21216590
Ni       7.99951879       7.73350727       2.33908756        2       1.00000000      -0.06207421      -0.02410602       0.34148066
Pt      10.68840300       7.72235200       2.39704733        3       0.00000000       0.11545917       0.00509834       0.36867719
Pt      13.40120226       7.72988958       2.39546634        3       0.00000000      -0.07301909       0.03795506       0.32034761
Pt      -0.00831089       1.57364705       4.65519613        6       0.00000000      -0.07601581      -0.06077297      -0.27999619
Pt       2.65492872       1.58101416       4.63262111        5       0.00000000      -0.03791641       0.00219508      -0.39569071
Pt       5.37037065       1.54720274       4.64101991        5       0.00000000       0.06509034      -0.02944157      -0.34861325
Pt       8.02780913       1.54476923       4.74109883        6       0.00000000      -0.03055079      -0.03877451      -0.02948589
Ni       1.33288662       3.91743540       4.65898161        6       1.00000000      -0.02578842       0.09032202      -0.40197882
Pt       3.94654485       3.92034160       4.62824375        5       0.00000000      -0.08424685       0.09498125      -0.39093794
Pt       6.69376280       3.86368949       4.64380880        5       0.00000000      -0.00907426       0.00259965      -0.36545678
Pt       9.42411126       3.89664429       4.65371719        6       0.00000000       0.04894093      -0.00486859      -0.35730767
Ni       2.63110324       6.18158115       4.67000257        6       1.00000000      -0.14678787      -0.03487323      -0.30523496
Pt       5.31966136       6.20650301       4.62181990        5       0.00000000      -0.01291095      -0.01340864      -0.32477107
Pt       8.05509606       6.19787029       4.62090585        5       0.00000000      -0.01462617      -0.03859087      -0.33484843
Ni      10.74632017       6.17723432       4.66685318        6       1.00000000       0.14393078      -0.05045562      -0.31244752
Pt       3.99653653       8.50044096       4.64610643        5       0.00000000      -0.00048948       0.09250551      -0.26102374
Pt       6.67934130       8.49693861       4.58357040        5       0.00000000      -0.03325799      -0.03245499      -0.39800036
Pt       9.38175118       8.48335264       4.62384997        5       0.00000000       0.01361814      -0.00507014      -0.36127080
Pt      12.06146389       8.41678322       4.70162711        6       0.00000000       0.07726636      -0.19050476      -0.19286546
Pt      -0.07431517       0.04002665       6.96414949        9       0.00000000      -0.17961298       0.02888355      -0.17435489
Pt       2.67265160       0.00589985       6.88778150        8       0.00000000       0.10917358       0.03180456       0.33342933
Pt       5.44898786       0.01283387       6.87826100        8       0.00000000       0.10944235      -0.00624912       0.39741969
Ni       8.02117911       0.02915416       6.86501080        8       1.00000000       0.02842842       0.00151412      -0.22997401
Pt       1.29811341       2.34974913       6.86913829        8       0.00000000      -0.01094663       0.24756535       0.36978077
Pt       4.05378400       2.32700780       6.88322274        8       0.00000000       0.03036607      -0.03934099       0.47013652
Ni       6.71446451       2.31202731       6.93880320        8       1.00000000       0.03841453      -0.03267451      -0.45332995
Ni       9.33915528       2.31628406       6.86780682        8       1.00000000      -0.01594991       0.00450841      -0.22514442
Pt       2.64225751       4.69256919       6.83516596        7       0.00000000      -0.10640363       0.04519872       0.31206384
Pt       5.36418657       4.62352264       6.89280133        8       0.00000000      -0.01275472       0.04255839       0.45175623
Pt       8.03630208       4.57233783       6.88943356        8       0.00000000       0.06400385      -0.07240416       0.39116556
Pt      10.71594253       4.66660181       6.83353272        7       0.00000000       0.10265375       0.06270601       0.32754208
Pt       3.93841594       7.00025694       6.88033938        8       0.00000000      -0.21286239       0.00982662       0.13898846
Pt       6.67879874       6.97232068       6.96588525        9       0.00000000      -0.05010039      -0.07137001      -0.05953075
Pt       9.41661283       6.95983089       6.86990408        8       0.00000000       0.19815933      -0.07874289       0.25067169
Ni      12.04766979       6.97332190       6.85504463        8       1.00000000      -0.00277059      -0.01935425      -0.24804252
