64
Lattice="10.113508262573736 0.03733894956232441 0.011773637775409856 5.089090610158465 8.802212453780376 -0.012662740073678352 0.0 0.0 21.42924233050593" Properties=species:S:1:pos:R:3:tags:I:1:initial_magmoms:R:1:forces:R:3 unique_id=2900e72d4ee340adaec7443585641622 energy=-365.87041681889593 stress="0.003525802937733675 0.00010578075837284662 0.0001531743180259075 0.00010578075837284662 0.003581491169546711 -0.00034737394411203963 0.0001531743180259075 -0.00034737394411203963 -0.002999260788904069" pbc="T T T"
Pt      -0.03338400      -0.10521728       0.01643983        0       0.00000000       0.00012131      -0.13129059      -0.42974300
Ni       2.56607404      -0.05009133       0.07218966        1       1.00000000      -0.06743417       0.09702696      -0.11796638
Ni       5.10217096      -0.03268076       0.09193318        1       1.00000000       0.06578595       0.03034643       0.02134972
Ni       7.52280834       0.03083549       0.07352319        1       1.00000000       0.01629780      -0.00413939      -0.12801484
Pt       1.27424504       2.20421491       0.01867763        0       0.00000000       0.12057206       0.07012153      -0.48555225
Pt       3.89345828       2.22746592       0.00000000        0       0.00000000      -0.05399798       0.05712982      -0.42946643
Ni       6.39347093       2.21914637       0.09320926        1       1.00000000       0.01946946      -0.00536263       0.16436919
Ni       8.78674885       2.23701767       0.07695771        1       1.00000000       0.05681206       0.03778182      -0.04084902
Ni       2.59265637       4.45236122       0.17635273        2       1.00000000       0.03335436      -0.11718373      -0.31894725
Ni       5.10807377       4.46211136       0.09464501        1       1.00000000       0.00036385      -0.03662339       0.17377697
Ni       7.54557747       4.41873753       0.11120967        1       1.00000000       0.00627243       0.01384651       0.22211366
Pt      10.05523240       4.51290902       0.00938024        0       0.00000000      -0.01532022       0.03239732      -0.34998075
Ni       3.81738997       6.53732065       0.08485457        1       1.00000000       0.05715730      -0.06146188      -0.04731509
Ni       6.34944778       6.53950409       0.07683346        1       1.00000000      -0.06301392      -0.03595752       0.09984699
Ni       8.86403583       6.65571643       0.07639912        1       1.00000000       0.06555715      -0.03151010      -0.05910543
Ni      11.40459467       6.67042870       0.06879822        1       1.00000000      -0.08288750      -0.04596543      -0.02052908
Pt       1.27367088       0.70802940       2.29366338        4       0.00000000      -0.02492595       0.01689441       0.11990084
Pt       3.86800690       0.72935092       2.22131017        3       0.00000000      -0.05540825       0.01992329      -0.04392925
Ni       6.31786915       0.76421315       2.20329185        3       1.00000000      -0.01757249       0.05896132       0.08651973
Pt       8.76817453       0.80587427       2.22035749        3       0.00000000      -0.09537332       0.07525523      -0.02602062
Ni       2.57482629       2.96632186       2.24078999        3       1.00000000       0.02189517      -0.03720912       0.18086754
Pt       5.12991388       3.01398552       2.26251742        4       0.00000000      -0.00088084       0.00407277       0.03029262
Ni       7.57257009       3.01263375       2.20612890        3       1.00000000       0.00120771       0.13983077       0.14084039
Pt      10.06937377       3.00717322       2.30030384        4       0.00000000       0.02860051       0.05587764       0.03639179
Ni       3.86123988       5.14629705       2.20448034        3       1.00000000       0.02640718      -0.00448150       0.17689894
Ni       6.34178107       5.13639585       2.20277998        3       1.00000000       0.01797652       0.00436446       0.18974515
Ni       8.82149082       5.13899673       2.23550818        3       1.00000000      -0.02184653      -0.05435413       0.15760901
Pt      11.40578237       5.16958817       2.26593966        4       0.00000000      -0.03066623      -0.05180503       0.02199487
Ni       5.08333924       7.24633176       2.19881280        3       1.00000000      -0.00042310      -0.06720756       0.09777103
Pt       7.60437925       7.23314327       2.17615386        3       0.00000000      -0.00489213      -0.02449596       0.02420997
Ni      10.14716862       7.33289701       2.17232961        3       1.00000000      -0.03964926      -0.07408109       0.05335637
Pt      12.66155434       7.35922799       2.16451873        3       0.00000000      -0.03724557       0.03424230      -0.07497289
Ni      -0.00084266       1.49054650       4.38779045        6       1.00000000      -0.11798910       0.06455719      -0.00828090
Ni       2.53706048       1.49884768       4.36176297        6       1.00000000       0.03314168       0.02835911      -0.08776596
Ni       5.11349905       1.49970349       4.37454999        6       1.00000000       0.11481369       0.00154597      -0.01357217
Ni       7.56193204       1.52764692       4.37300242        6       1.00000000      -0.02175593       0.04948222       0.00439336
Ni       1.28351710       3.64454490       4.33800032        5       1.00000000       0.10569285       0.01862782      -0.05801222
Ni       3.82942054       3.67218135       4.31736448        5       1.00000000      -0.02137041       0.11500997      -0.00476566
Ni       6.36016548       3.68766205       4.36845651        6       1.00000000      -0.00570003       0.02608873       0.02433070
Ni       8.82225904       3.69742473       4.37313866        6       1.00000000      -0.11253288       0.00012663      -0.02901480
Ni       2.55519502       5.84518546       4.33208861        5       1.00000000       0.00956455      -0.07571272       0.03055125
Ni       5.11042619       5.82390939       4.32752917        5       1.00000000       0.03359131      -0.08310755      -0.02205676
Ni       7.59320228       5.81785257       4.35864703        6       1.00000000      -0.00056519      -0.08836260       0.01441736
Ni      10.13388285       5.86021589       4.35771198        6       1.00000000      -0.01219469      -0.03305757       0.01052998
Pt       3.83005407       8.03319832       4.37387638        6       0.00000000       0.03132671      -0.02624823       0.12989587
Ni       6.36096856       8.03536266       4.36699102        6       1.00000000       0.02545955      -0.12356372       0.01549938
Pt       8.90279602       8.05185273       4.39950766        6       0.00000000       0.04369929      -0.01282788       0.12730404
Ni      11.41074592       8.09737967       4.35355860        6       1.00000000       0.01754179       0.01340433      -0.01688283
Ni       0.03500368       0.01454400       6.31672007        7       1.00000000       0.06539376       0.05890781       0.61457869
Ni       2.51297892       0.00544814       6.41675802        8       1.00000000      -0.07027401       0.06621584       0.02271026
Ni       5.09015143       0.02570004       6.42905721        8       1.00000000       0.04734100       0.09470416      -0.09421031
Ni       7.55971293       0.04190979       6.42924233        8       1.00000000      -0.02251668       0.09198455      -0.06241566
Ni       1.25969960       2.17068623       6.27498736        7       1.00000000       0.03181696       0.06545518       0.46394108
Ni       3.82561698       2.17211284       6.27104387        7       1.00000000      -0.01454125       0.03759845       0.43441068
Ni       6.34318558       2.21318522       6.39070462        8       1.00000000      -0.01163490       0.02735908      -0.22974758
Ni       8.84479825       2.22578607       6.38395045        8       1.00000000      -0.00708198       0.00564288      -0.19516495
Pt       2.55631426       4.39389787       6.40080367        8       0.00000000      -0.03101099      -0.09438771       0.11018475
Ni       5.12246343       4.40120361       6.38169694        8       1.00000000      -0.01428321      -0.00201296      -0.24513920
Ni       7.60071340       4.40433946       6.39032110        8       1.00000000      -0.00868241       0.00062203      -0.27442231
Ni      10.09488390       4.41573549       6.27715839        7       1.00000000       0.00377290      -0.00932055       0.44075009
Ni       3.84035957       6.59141749       6.41695569        8       1.00000000       0.04030048      -0.05604280      -0.04678620
Ni       6.35590227       6.59152429       6.38143047        8       1.00000000      -0.00972044       0.01315512      -0.24319179
Ni       8.87283030       6.58054698       6.42074397        8       1.00000000      -0.02642236      -0.13097079      -0.05178908
Ni      11.38681234       6.65656314       6.38689864        8       1.00000000      -0.02149344      -0.00817551      -0.18574162
