64
Lattice="10.370196953439805 0.017104278747131066 0.015832935518156538 5.199911216628327 8.917813625011714 0.021931487461363596 0.0 0.0 21.587820405494977" Properties=species:S:1:pos:R:3:tags:I:1:initial_magmoms:R:1:forces:R:3 unique_id=711ccd7bd6b14ed996cafdf7a70fb9dd stress="0.00570810667054252 0.00011691354577360986 0.0003848051930178033 0.00011691354577360986 0.005597775243025038 0.00023519437036022587 0.0003848051930178033 0.00023519437036022587 -0.0016938391028380791" energy=-378.0761849694873 pbc="T T T"
Ni      -0.03809001       0.01187940       0.14348244        1       1.00000000      -0.12559279       0.06629123       0.05728910
Ni       2.61139049      -0.00229542       0.05494877        1       1.00000000       0.02048185       0.05349118       0.38770418
Ni       5.18960427      -0.00840809       0.10556041        1       1.00000000       0.05898779       0.08363189      -0.40235061
Ni       7.80447619      -0.02024195       0.15539580        2       1.00000000       0.07207716      -0.05176139       0.04131379
Pt       1.23586567       2.22907373       0.13251948        1       0.00000000      -0.02645194      -0.03491825      -0.21035591
Pt       3.86664161       2.18128716       0.06345669        1       0.00000000      -0.03688388       0.06815093      -0.01110391
Pt       6.54325281       2.14833533       0.06874105        1       0.00000000       0.04227744      -0.08604388      -0.03855163
Ni       9.09151087       2.21422529       0.13613311        1       1.00000000       0.01388132      -0.08781902       0.16520316
Ni       2.58030515       4.49449847       0.08063554        1       1.00000000      -0.02151284      -0.04973129      -0.18037619
Pt       5.17126467       4.48832383       0.10244576        1       0.00000000       0.22862431      -0.06475603      -0.86854944
Pt       7.86521973       4.46442662       0.00000000        0       0.00000000      -0.11440226      -0.03178781      -0.19229338
Ni      10.39785191       4.50112613       0.03532631        0       1.00000000       0.06177314       0.01224933       0.15153149
Ni       3.85603449       6.73920632       0.05789567        1       1.00000000      -0.01734759       0.09516652       0.36936771
Pt       6.50056345       6.79433252       0.16242633        2       0.00000000      -0.03675142      -0.04343071      -0.52001223
Ni       9.11446601       6.72921454       0.03297157        0       1.00000000      -0.03094563       0.02940963       0.18143605
Ni      11.69519180       6.71369613       0.03698364        0       1.00000000       0.14191258       0.07617099       0.28132044
Ni       1.29482839       0.75359120       2.17626858        4       1.00000000      -0.02009774       0.10303725       0.09142384
Ni       3.85192456       0.76971016       2.17277379        4       1.00000000      -0.20056111       0.07042641       0.14341991
Ni       6.52689370       0.77119345       2.18226656        4       1.00000000       0.14960807       0.06839628       0.22212334
Ni       9.08138824       0.78403437       2.15709789        4       1.00000000       0.04499005       0.16067662       0.09179059
Ni       2.60159378       2.93401357       2.22744548        4       1.00000000       0.03047330      -0.14367999       0.37231090
Ni       5.19797887       2.95576360       2.19955340        4       1.00000000      -0.01941230      -0.00572494       0.13352505
Ni       7.80547838       2.92999175       2.20240195        4       1.00000000       0.11191248      -0.17893978       0.12905003
Ni      10.35423770       2.93781131       2.23516544        4       1.00000000      -0.07926883      -0.16742940       0.32127736
Pt       3.88453614       5.21981789       2.21541024        4       0.00000000      -0.00804438      -0.02663873      -0.04367088
Ni       6.50547328       5.21283429       2.20067702        4       1.00000000       0.01993683      -0.00743927       0.13382300
Pt       9.04089114       5.18098001       2.23352413        4       0.00000000      -0.10670815      -0.12066010       0.04044803
Pt      11.67851625       5.16535654       2.16884900        4       0.00000000      -0.11938179      -0.16701671       0.07298016
Ni       5.18097416       7.48479245       2.16634659        4       1.00000000      -0.12635045       0.12524671       0.04455951
Ni       7.78447451       7.48088420       2.19122620        4       1.00000000       0.03405445       0.15345193       0.08471927
Pt      10.38521967       7.49850608       2.10358512        3       0.00000000       0.00621582      -0.01732917      -0.02537030
Ni      13.00219281       7.48589406       2.15347408        4       1.00000000       0.02768332       0.07188523      -0.00873618
Ni       0.00189614       1.55241735       4.28379758        5       1.00000000      -0.06172558       0.13494118      -0.34691014
Ni       2.59020421       1.54598761       4.30112886        5       1.00000000      -0.03691186       0.10919425      -0.34808945
Pt       5.15789050       1.55653540       4.29590209        5       0.00000000       0.02888331       0.08687613      -0.18386272
Ni       7.81750930       1.52904948       4.31286834        5       1.00000000       0.11201513      -0.04059782      -0.34969606
Ni       1.31904877       3.68185075       4.30584874        5       1.00000000       0.01679350      -0.17879035      -0.35389584
Ni       3.83795799       3.70684435       4.32992680        5       1.00000000      -0.18690829      -0.03754296      -0.29865628
Pt       6.59793945       3.71716237       4.28055155        5       0.00000000       0.12018652      -0.01248454      -0.24587877
Ni       9.11036628       3.69722219       4.34301420        5       1.00000000       0.18228612      -0.23564413      -0.25119560
Ni       2.60502320       5.92549326       4.36232474        6       1.00000000       0.03272942      -0.02160195      -0.10935396
Pt       5.19207693       5.94869955       4.31215654        5       0.00000000       0.00505253       0.05272522       0.05189272
Ni       7.80997532       5.93432194       4.35444289        6       1.00000000      -0.00298745       0.01751952      -0.21116044
Pt      10.38771429       5.86914913       4.45826726        7       0.00000000       0.08874229      -0.10987705       0.13995273
Pt       3.90678586       8.23252961       4.26377853        5       0.00000000      -0.03645420       0.16838215      -0.09913053
Pt       6.50726067       8.26733502       4.25742162        5       0.00000000      -0.05438191       0.30548097      -0.06981790
Pt       9.05151398       8.18544868       4.35165900        6       0.00000000      -0.09619593      -0.00420298      -0.09498251
Pt      11.70613503       8.18230718       4.32123847        5       0.00000000       0.06135150       0.00468555      -0.11115357
Pt       0.02289164      -0.01026143       6.55929930       10       0.00000000      -0.01760992       0.14556267       0.19204688
Ni       2.61569691       0.00974568       6.51773256        9       1.00000000      -0.07524646      -0.00208260      -0.11983824
Pt       5.12690762      -0.00057545       6.58766844       10       0.00000000       0.05683770       0.06247771       0.34344367
Pt       7.75689047      -0.01373592       6.58782041       10       0.00000000      -0.13277215       0.19226966       0.18666070
Pt       1.35011737       2.23911436       6.40273251        8       0.00000000      -0.05732353       0.03102797       0.30106273
Ni       3.89151639       2.23067924       6.43578571        8       1.00000000      -0.10457460       0.00876210       0.06400813
Ni       6.49098004       2.23965072       6.45223979        9       1.00000000       0.03186921      -0.17778161       0.07348865
Pt       9.04870962       2.33287951       6.49632457        9       0.00000000       0.01473757      -0.15768467      -0.07676060
Pt       2.56682904       4.52667260       6.49095840        9       0.00000000       0.02826982      -0.13176328      -0.00521460
Pt       5.20488053       4.39710881       6.46279954        9       0.00000000      -0.05434484      -0.04582118       0.71154379
Ni       7.82740157       4.48637431       6.42599539        8       1.00000000       0.06028928       0.09660032       0.11394605
Ni      10.36327417       4.50248169       6.53657811        9       1.00000000      -0.00904311      -0.12440533      -0.06038055
Ni       3.88890662       6.68429418       6.52588302        9       1.00000000       0.07055684      -0.01074227      -0.19997281
Pt       6.59304070       6.67544695       6.48413124        9       0.00000000       0.11522009      -0.13645678       0.52841887
Ni       9.11251527       6.66470220       6.54153202        9       1.00000000       0.01531232      -0.09480703      -0.08279433
Ni      11.67049531       6.68562157       6.54903519        9       1.00000000      -0.08983015       0.15320546      -0.10296625
