64
Lattice="10.03728651433838 0.01287516504938813 -0.08406433610047238 5.0297934771799335 8.704066128573452 -0.052781648698152314 0.0 0.0 21.476008273925178" Properties=species:S:1:pos:R:3:tags:I:1:initial_magmoms:R:1:forces:R:3 unique_id=93d96e0e0b9c4150918687485907c4aa energy=-365.5689270510781 stress="0.003874649823598253 5.801618750041379e-05 -0.0004773657976266837 5.801618750041379e-05 0.004117837435941699 -0.00019867956930759876 -0.0004773657976266837 -0.00019867956930759876 -0.0018948189486362498" pbc="T T T"
Ni       0.01638868      -0.05100984       0.25294845        3       1.00000000       0.00312393      -0.00660222      -0.28483972
Ni       2.52282343      -0.04337533       0.14017137        1       1.00000000      -0.00738248      -0.05925867       0.19263994
Ni       4.95605123      -0.00954344       0.09064908        1       1.00000000       0.00207948      -0.14549600       0.12178971
Pt       7.54835209      -0.00279694       0.00000000        0       0.00000000       0.04856462      -0.01563130      -0.25615313
Pt       1.21135689       2.10946724       0.12137464        1       0.00000000      -0.00792471      -0.05301185      -0.15545217
Ni       3.77710180       2.11068241       0.09493957        1       1.00000000      -0.09623000       0.06819729       0.01937231
Ni       6.28337164       2.18219360       0.05954506        1       1.00000000       0.07554699       0.01763340       0.00254972
Ni       8.74597594       2.22723115       0.07419191        1       1.00000000      -0.07417586      -0.02928137       0.15367823
Pt       2.50733082       4.38193282       0.17267171        2       0.00000000       0.17916530      -0.11102441      -1.10848737
Pt       5.11079869       4.40436148       0.00955954        0       0.00000000       0.03892849       0.08957546      -0.29286712
Ni       7.58224383       4.36893738       0.08136507        1       1.00000000      -0.02116505       0.07044634       0.26542330
Ni       9.96464230       4.37935017       0.04541732        0       1.00000000       0.03755431      -0.00788226       0.09400255
Ni       3.80141577       6.55472941       0.11401361        1       1.00000000       0.06320565      -0.02684521       0.11512083
Ni       6.31424393       6.57799231       0.10209865        1       1.00000000       0.09989543      -0.00419569       0.20227076
Ni       8.76840287       6.53266952       0.15621878        2       1.00000000      -0.03065787      -0.01317406      -0.10534173
Ni      11.23366319       6.56610444       0.02359552        0       1.00000000      -0.12786828       0.09250438       0.06231127
Ni       1.24041787       0.70230077       2.22781149        5       1.00000000      -0.01676801       0.02573270       0.10108024
Ni       3.69151955       0.68307115       2.17324502        5       1.00000000      -0.04188908      -0.00029513       0.11063455
Pt       6.28208343       0.68255093       2.19966979        5       0.00000000       0.10871930      -0.03160414      -0.09534254
Ni       8.81831874       0.73957279       2.17891819        5       1.00000000       0.01130850      -0.02190539       0.11686513
Ni       2.48346476       2.84828018       2.23450489        5       1.00000000      -0.07005018      -0.06128353       0.13245043
Pt       4.99258391       2.94953716       2.20286924        5       0.00000000       0.02586903       0.11789682      -0.15053423
Ni       7.56107271       2.93839431       2.15815443        5       1.00000000      -0.02118861       0.02262874       0.09694928
Ni       9.96602158       2.88288479       2.13237865        4       1.00000000      -0.09225742      -0.02412975       0.05237299
Ni       3.78248179       5.14704137       2.24929470        5       1.00000000       0.01169842       0.07811188       0.19664740
Ni       6.30740287       5.13184642       2.19697936        5       1.00000000      -0.01481607       0.01971431       0.12945148
Ni       8.71812551       5.08406715       2.15348817        5       1.00000000      -0.10914413      -0.02513288       0.21401000
Pt      11.21504540       5.15455063       2.15905142        5       0.00000000      -0.10594161       0.07472180      -0.17688587
Ni       5.00854642       7.24127592       2.15308127        5       1.00000000      -0.02098353      -0.05580529       0.04996152
Ni       7.52496173       7.24588758       2.12962288        4       1.00000000      -0.05507570       0.00205602       0.13531592
Ni       9.96445122       7.26918285       2.13685619        4       1.00000000      -0.16226381       0.11119338       0.15162044
Ni      12.59346111       7.24764313       2.13560425        4       1.00000000       0.13793879       0.05369372       0.12704752
Ni      -0.08945429       1.43904871       4.31007464        7       1.00000000      -0.12627131      -0.13419712      -0.17531629
Ni       2.47680490       1.43592670       4.31763766        7       1.00000000      -0.00633740      -0.08453365      -0.10400335
Pt       4.98387361       1.43506387       4.37251216        8       0.00000000       0.05239932      -0.01149324       0.09922333
Ni       7.54146047       1.47190287       4.29828391        7       1.00000000       0.07939861       0.05563658      -0.09075884
Pt       1.16732575       3.57382439       4.29118517        7       0.00000000      -0.12116676      -0.04033793       0.11955154
Ni       3.75563356       3.65577050       4.28769762        7       1.00000000      -0.07716026       0.06567320      -0.20349718
Ni       6.28640893       3.66225673       4.30539529        7       1.00000000       0.10586754       0.01355233      -0.12856813
Ni       8.70100927       3.63106427       4.26637784        7       1.00000000      -0.06738788       0.01422316      -0.11475798
Ni       2.51298433       5.85923365       4.29966078        7       1.00000000       0.06523625       0.04785836      -0.09410430
Ni       4.98211784       5.77811329       4.28741716        7       1.00000000       0.00840404       0.03513486      -0.11063199
Ni       7.50333360       5.75343717       4.24139412        6       1.00000000       0.02243598      -0.04946042      -0.12476994
Ni       9.98717931       5.83281906       4.25389400        7       1.00000000      -0.08422788      -0.00131985      -0.02080618
Ni       3.70049055       7.96308177       4.26997883        7       1.00000000       0.05278420       0.02009654      -0.18500240
Pt       6.26551492       7.94726822       4.22465465        6       0.00000000       0.02012923      -0.06234709       0.10243166
Ni       8.77959741       7.95380911       4.22743024        6       1.00000000       0.00363598      -0.09429535      -0.15278250
Ni      11.28118186       7.93216753       4.25834589        7       1.00000000      -0.04677123      -0.11753367      -0.11382399
Pt      -0.07410920       0.00544321       6.47600827       12       0.00000000      -0.12955776       0.11643659       0.19194727
Ni       2.49880348       0.03284596       6.42094014       11       1.00000000       0.01832608       0.03054583      -0.13136115
Ni       4.99696246       0.00487333       6.41395260       11       1.00000000       0.02985803      -0.10765395       0.00584616
Ni       7.44215009       0.00904790       6.24597539        9       1.00000000       0.06925298       0.08035640       0.28756818
Ni       1.21268930       2.15813527       6.34726565       10       1.00000000       0.03319780      -0.09320378       0.35518568
Ni       3.73552980       2.14962801       6.41074230       11       1.00000000      -0.05044257       0.14312303       0.07120711
Ni       6.26250697       2.19175887       6.39006611       11       1.00000000       0.11800952       0.04987543      -0.02698590
Ni       8.70969049       2.21654126       6.33598754       10       1.00000000      -0.00582110      -0.06951113      -0.24346025
Pt       2.51469685       4.36870508       6.34792762       10       0.00000000       0.16714758       0.03669858       1.05925369
Ni       5.03511437       4.34052096       6.25632401       10       1.00000000       0.01614822      -0.00823687       0.34172851
Ni       7.47581164       4.31598992       6.34982096       10       1.00000000       0.02583734       0.04573093      -0.25906354
Ni       9.96741811       4.32502549       6.34073561       10       1.00000000       0.00736123       0.01179846      -0.05486759
Ni       3.73168369       6.53241074       6.36556569       11       1.00000000       0.04372074       0.01882424      -0.22199615
Ni       6.21811004       6.47446605       6.37651986       11       1.00000000      -0.00884043      -0.05804611      -0.15688501
Pt       8.74670403       6.52205656       6.36968023       11       0.00000000      -0.00413107      -0.02030283      -0.00306867
Ni      11.27843006       6.57037264       6.30468213       10       1.00000000       0.02114913       0.01536142      -0.13509343
