64
Lattice="10.24658782838999 0.010675715963315006 0.0012787270457758479 5.132539355422812 8.784083825083336 -0.07223486040828878 0.0010440762608157864 -0.06870647722058952 8.7456709713678" Properties=species:S:1:pos:R:3:tags:I:1:initial_magmoms:R:1:forces:R:3 unique_id=3ff95ffe162741b984fce8857d62cfc6 stress="-0.00703786229992126 -2.8790380962224495e-05 1.8915612380160945e-05 -2.8790380962224495e-05 -0.006987393802839671 1.0223427525796119e-05 1.8915612380160945e-05 1.0223427525796119e-05 -0.006008620121681338" energy=-393.6154723387565 pbc="T T T"
Ni       0.04268258      -0.05705689       0.20039639        4       1.00000000       0.07971425      -0.08437551       0.16984223
Ni       2.49816039      -0.03001771       0.21910491        4       1.00000000      -0.06879993      -0.03295289       0.18050347
Pt       5.11312539      -0.03182031       0.15277332        4       0.00000000      -0.03046586       0.08296387      -0.24192769
Ni       7.70939788      -0.05098679       0.20529638        4       1.00000000       0.02825114      -0.03655410       0.17105055
Ni       1.28201593       2.19833741       0.10604355        4       1.00000000       0.00711099      -0.00057885       0.15266474
Pt       3.75647222       2.26034362       0.17967406        4       0.00000000      -0.01799636       0.03296125      -0.05857662
Pt       6.41971761       2.27809930       0.08042052        4       0.00000000      -0.01946066       0.05603812      -0.13319490
Pt       9.04205530       2.24542901       0.11503157        4       0.00000000       0.04462284       0.05588754      -0.09585626
Ni       2.56597403       4.43395703       0.02252597        4       1.00000000       0.06858543       0.07146952      -0.07386009
Ni       5.11974862       4.47497983       0.07541150        4       1.00000000      -0.04297808       0.10461615       0.05403844
Ni       7.66114327       4.45927413       0.03919808        4       1.00000000      -0.06968838       0.08510823      -0.00467150
Ni      10.28993063       4.42758886       0.02460664        4       1.00000000       0.08648237       0.06568994      -0.03058754
Ni       3.86301406       6.57017664       0.05678743        4       1.00000000       0.06033931      -0.01123127       0.03873097
Ni       6.39085901       6.58032583       0.06400329        4       1.00000000      -0.04406629      -0.02809130      -0.00972576
Ni       8.92319332       6.55543137       0.10442534        4       1.00000000      -0.14702379      -0.02624608       0.06606448
Ni      11.58089126       6.55257277       0.01831320        4       1.00000000       0.10004158      -0.03400549      -0.03600337
Ni       1.30867498       0.72001655       2.21780489        3       1.00000000      -0.01150422      -0.01171637       0.15269313
Ni       3.76594646       0.73920130       2.20272361        3       1.00000000      -0.10319419      -0.05494077       0.01275416
Ni       6.43082798       0.75421283       2.20221928        3       1.00000000       0.03225819       0.00265533      -0.00155105
Pt       9.00278551       0.71987481       2.22491849        3       0.00000000       0.04784360      -0.03316653       0.13684510
Ni       2.55490922       2.87764882       2.26546537        3       1.00000000       0.03089680      -0.07690576       0.17298171
Ni       5.10833495       2.98641875       2.18774869        3       1.00000000      -0.03552775       0.12970298      -0.03606308
Ni       7.66108969       2.90991759       2.22520962        3       1.00000000      -0.03810088      -0.09400324       0.02031561
Ni      10.30761684       2.89096387       2.24129219        3       1.00000000       0.09214686      -0.03989996       0.11368675
Ni       3.89826725       5.10640776       2.15968562        3       1.00000000       0.02987500       0.00880698       0.03939308
Ni       6.35899075       5.13558055       2.13099724        3       1.00000000      -0.01829585       0.00666930      -0.01504888
Pt       8.89214505       5.04828473       2.17159192        3       0.00000000       0.01329791      -0.06891448       0.01221739
Pt      11.62168593       5.04452862       2.17563060        3       0.00000000       0.02983495      -0.06352139       0.01994740
Ni       5.16926992       7.24822713       2.10872020        3       1.00000000      -0.02394659      -0.07087093       0.02936566
Ni       7.59501621       7.30899178       2.10532103        3       1.00000000      -0.09478043      -0.10039693       0.04058857
Pt      10.25206973       7.27602994       2.12391516        3       0.00000000       0.02586042      -0.12627542       0.07244388
Ni      12.87374482       7.26515022       2.08498743        3       1.00000000       0.11423196      -0.12594077       0.01751232
Ni       0.06497988       1.46794539       4.30499664        2       1.00000000       0.06474848      -0.03795666      -0.00363187
Ni       2.48658384       1.48182937       4.28086967        2       1.00000000      -0.02838860      -0.00135998       0.00936562
Pt       5.09662721       1.49222972       4.21934432        2       0.00000000      -0.07058647       0.00416455      -0.14897667
Ni       7.70884519       1.46473603       4.30639665        2       1.00000000      -0.00366670      -0.03904417      -0.05884890
Ni       1.29271326       3.61085532       4.34266469        2       1.00000000       0.03647625      -0.02601311      -0.01086887
Ni       3.80097815       3.70532437       4.26386407        2       1.00000000       0.01578776       0.05726751      -0.13914656
Pt       6.43393896       3.70926551       4.29893163        2       0.00000000       0.00993194      -0.00850938      -0.09350884
Ni       9.01351006       3.65906470       4.28368526        2       1.00000000       0.03529238       0.00067094      -0.08540271
Ni       2.59676862       5.74007442       4.33142041        2       1.00000000       0.04095082      -0.03421707      -0.05771923
Ni       5.13409023       5.80466083       4.29534208        2       1.00000000       0.02751139      -0.04150839      -0.10905585
Ni       7.65019873       5.82881726       4.29495737        2       1.00000000      -0.06692174       0.04944970      -0.05730702
Ni      10.27537216       5.74010458       4.32848255        2       1.00000000       0.02924465      -0.03925789      -0.04219562
Pt       3.93155456       7.93661338       4.24181781        2       0.00000000       0.01381043      -0.00961324       0.07047608
Ni       6.39806153       7.99713094       4.21827127        2       1.00000000      -0.03887402      -0.00299680      -0.07650107
Pt       8.85704410       7.99148790       4.20699474        2       0.00000000      -0.04059901      -0.02334452      -0.01679466
Pt      11.58989905       7.94645648       4.23223180        2       0.00000000       0.03230087      -0.04465114      -0.10423538
Pt       0.01922017      -0.08910760       6.53614627        1       0.00000000      -0.05970307       0.01820194       0.18054376
Pt       2.52938644      -0.03323470       6.53417525        1       0.00000000       0.05336892       0.07571187       0.19786664
Pt       5.12995543      -0.03863964       6.42488526        1       0.00000000      -0.07643302       0.07967292       0.07344841
Pt       7.69358559      -0.07924078       6.55957880        1       0.00000000       0.00720497       0.01612815       0.20780379
Ni       1.27642143       2.21996848       6.42353440        1       1.00000000       0.00034065       0.06753601      -0.06026508
Pt       3.80675742       2.30712812       6.38729402        1       0.00000000      -0.03323554       0.14253401       0.02753647
Ni       6.41095318       2.20963182       6.37608360        1       1.00000000      -0.02392893       0.04288820      -0.15531468
Pt       8.98770904       2.26647113       6.33187124        1       0.00000000      -0.00557524       0.03369154      -0.00069954
Ni       2.53362168       4.40668235       6.40366417        1       1.00000000      -0.02978982       0.08889580      -0.11841592
Ni       5.13557082       4.41410896       6.43750287        1       1.00000000      -0.01809269       0.10691277      -0.03446618
Ni       7.63460018       4.35505216       6.43970459        1       1.00000000      -0.12461478       0.01275696      -0.04914358
Ni      10.33225451       4.35224592       6.40518071        1       1.00000000       0.13998380       0.00889313      -0.12170019
Ni       3.85249477       6.44836976       6.42396319        1       1.00000000      -0.00525660      -0.05681703      -0.02670366
Ni       6.38276455       6.47701369       6.40620749        1       1.00000000      -0.01225142       0.01040074      -0.11729973
Pt       8.96938270       6.40464142       6.45436021        1       0.00000000       0.00716064      -0.03783076       0.07315350
Ni      11.56866740       6.46583220       6.41755011        1       1.00000000      -0.00176064       0.00536227      -0.08856538
