64
Lattice="10.325770410654066 -0.024232268819834663 0.01874684478704861 5.141899444937721 8.971629853820044 0.03334723160923356 0.015306734671807933 0.02260272408973401 8.876500724247785" Properties=species:S:1:pos:R:3:tags:I:1:initial_magmoms:R:1:forces:R:3 unique_id=84dab98d40054e76aac1e41ccbf8f61c stress="0.00039206858581891657 3.132788861254663e-06 -3.0085517638169112e-05 3.132788861254663e-06 0.0003872340424944318 -1.6641452488121176e-05 -3.0085517638169112e-05 -1.6641452488121176e-05 0.0003625269978855608" energy=-401.11523391593363 pbc="T T T"
Ni       0.04171550       0.00425006       0.16900008        4       1.00000000       0.11478492       0.06847903       0.30119826
Ni       2.54278433       0.00589955       0.20210761        4       1.00000000      -0.11642771       0.07965324       0.43331119
Pt       5.10135465      -0.03393482       0.14797937        4       0.00000000      -0.12045739       0.01366229       0.19452540
Pt       7.77648512      -0.12296061       0.18654551        4       0.00000000       0.04360547      -0.07105864       0.31174070
Ni       1.29616288       2.25342002       0.11333306        4       1.00000000       0.02043580       0.07280842       0.30327326
Pt       3.78009362       2.29774591       0.21157912        4       0.00000000      -0.02493624       0.16533746       0.11199531
Pt       6.43453276       2.26782839       0.14478821        4       0.00000000       0.04345632       0.11049725       0.03994661
Pt       9.13535489       2.26013797       0.16775244        4       0.00000000       0.08631618       0.03026375       0.16394682
Ni       2.56583157       4.51219163       0.09059672        4       1.00000000       0.07959303       0.08384765       0.03899080
Ni       5.11695746       4.51099030       0.20038831        4       1.00000000      -0.04292639       0.09736628       0.39360026
Pt       7.77385699       4.53779649       0.14376241        4       0.00000000       0.03755792       0.09557225      -0.06605729
Ni      10.36320207       4.48880143       0.10628379        4       1.00000000       0.12808166       0.06146121       0.12890890
Ni       3.84094834       6.68233552       0.13222119        4       1.00000000      -0.04722141      -0.20585907       0.28892773
Pt       6.40000633       6.77177650       0.22396426        4       0.00000000      -0.07297619       0.05057154      -0.00865219
Ni       9.03075714       6.70242782       0.20307161        4       1.00000000      -0.05969693       0.01043246       0.34699462
Ni      11.61427275       6.65701321       0.11003332        4       1.00000000       0.02938842      -0.08942002       0.04235846
Ni       1.31905510       0.74398587       2.21478956        3       1.00000000       0.09623481      -0.03184994      -0.04061548
Ni       3.84875760       0.76779099       2.25119694        3       1.00000000       0.03715344       0.02066770      -0.03141861
Ni       6.43129115       0.78050229       2.27082768        3       1.00000000      -0.09862533       0.09359711      -0.00682053
Pt       9.12139474       0.72491560       2.28770715        3       0.00000000       0.13395681       0.03796122      -0.14330463
Ni       2.57427997       2.99643667       2.26190176        3       1.00000000       0.01373074       0.08148251       0.04870335
Ni       5.13867665       3.01519529       2.28768104        3       1.00000000      -0.14975638       0.07022350       0.08698281
Ni       7.74007548       3.02320265       2.27582591        3       1.00000000       0.08081791       0.12734261      -0.04796560
Ni      10.34771514       2.98226839       2.28723491        3       1.00000000       0.07878620       0.00431440       0.16446609
Ni       3.90109094       5.23323663       2.25818129        3       1.00000000       0.13599196      -0.04054245       0.11747422
Ni       6.42762974       5.24152662       2.28704303        3       1.00000000      -0.05971132       0.13893963      -0.02295424
Ni       8.99226201       5.19794912       2.28432034        3       1.00000000      -0.09442042      -0.14437137       0.16642989
Pt      11.66392909       5.17038857       2.19481074        3       0.00000000       0.14374469      -0.08560519       0.04064122
Ni       5.16212605       7.44603894       2.28330674        3       1.00000000       0.07345821      -0.18406293       0.05644330
Ni       7.68668531       7.47458822       2.27800298        3       1.00000000      -0.18401983      -0.05737208       0.06075253
Pt      10.28389001       7.42426451       2.24604458        3       0.00000000      -0.01232105      -0.01984757      -0.27348392
Ni      12.93453063       7.40357915       2.27817719        3       1.00000000       0.19332663      -0.27127884       0.04405185
Ni       0.01961879       1.51367186       4.39642051        2       1.00000000       0.00005549      -0.01602245      -0.06217754
Pt       2.55797068       1.51111904       4.30422718        2       0.00000000       0.03959532      -0.07898340       0.00212148
Ni       5.16029239       1.53410466       4.38111051        2       1.00000000      -0.09751967       0.08367355      -0.22019616
Pt       7.74093930       1.54716919       4.37063744        2       0.00000000       0.00280538       0.00766088       0.03789977
Pt       1.29861081       3.73530184       4.46305720        2       0.00000000       0.02269834      -0.03773324       0.01333356
Ni       3.87569555       3.78971245       4.37939610        2       1.00000000      -0.02651369       0.09488489      -0.26119717
Pt       6.42835057       3.80314559       4.35994554        2       0.00000000      -0.09596113       0.02679004      -0.03685884
Ni       9.02181849       3.75614578       4.39876694        2       1.00000000      -0.08614649       0.00587793      -0.30321461
Ni       2.62291903       5.95719179       4.45397548        2       1.00000000       0.09413203      -0.16647616      -0.08983072
Ni       5.14442573       5.96885208       4.38169069        2       1.00000000       0.01596600      -0.12744241      -0.27162726
Ni       7.70675344       5.96534382       4.39374754        2       1.00000000      -0.10042184       0.02003524      -0.26199422
Pt      10.29657125       5.90671277       4.44704255        2       0.00000000      -0.06375767      -0.02724581       0.04673672
Pt       3.94645339       8.13430066       4.39083032        2       0.00000000       0.02873222      -0.11959031       0.15931896
Ni       6.43424558       8.20568893       4.38230445        2       1.00000000      -0.03520044      -0.07700830      -0.25962963
Pt       8.93856183       8.20982156       4.37448931        2       0.00000000      -0.03574367      -0.08873273       0.09187525
Pt      11.63013149       8.18492246       4.37317448        2       0.00000000       0.06043356      -0.01389613      -0.01498903
Pt       0.00813775       0.04458200       6.60457040        1       0.00000000       0.04204362       0.08416214       0.09068341
Pt       2.57209983       0.03450654       6.64437445        1       0.00000000       0.00164315      -0.00259037       0.19957905
Pt       5.19042898       0.01953054       6.53184722        1       0.00000000       0.06386638      -0.00477502      -0.42054342
Pt       7.76157663      -0.05337604       6.57632460        1       0.00000000      -0.05886388      -0.04860981      -0.20470427
Ni       1.28871264       2.30921224       6.60180757        1       1.00000000       0.01001868       0.08245046      -0.05623022
Pt       3.84028195       2.31904649       6.52944189        1       0.00000000      -0.15287860       0.06148892      -0.20428857
Ni       6.46828376       2.27608547       6.53698454        1       1.00000000      -0.01649039       0.08763206      -0.22570391
Pt       9.07118904       2.35232301       6.53222479        1       0.00000000      -0.03466474       0.13218707      -0.27273683
Ni       2.54248123       4.54413273       6.60236066        1       1.00000000      -0.08755196       0.11792064      -0.14134086
Pt       5.12105687       4.51608230       6.61623037        1       0.00000000      -0.08649500       0.04627556       0.12267147
Ni       7.74524879       4.47375663       6.53260679        1       1.00000000      -0.11333956       0.00388476      -0.29111211
Ni      10.37087557       4.48109192       6.63038661        1       1.00000000       0.19271350       0.01200589      -0.07068322
Ni       3.82285499       6.70145193       6.60359575        1       1.00000000      -0.10691784      -0.11838441      -0.13271409
Pt       6.42609903       6.71034054       6.51145129        1       0.00000000      -0.04106971       0.03700752      -0.20753954
Pt       9.06920079       6.62841019       6.67839126        1       0.00000000       0.08677498      -0.14703855       0.19161346
Ni      11.64944374       6.66455700       6.63579086        1       1.00000000       0.09113309      -0.14262185      -0.19091201
