64
Lattice="10.286940398897599 -0.0050174727045473756 0.00780487528293314 5.1391249406238675 8.841271259948886 -0.05605998168891155 0.006372653983082232 -0.05653311109981553 8.795050601201787" Properties=species:S:1:pos:R:3:tags:I:1:initial_magmoms:R:1:forces:R:3 unique_id=bd22813271c44277af8a98baaf2578c2 stress="0.0001774274902810874 8.617430989772465e-07 -3.6411260102441237e-06 8.617430989772465e-07 0.0002016583765799898 3.358983409088219e-05 -3.6411260102441237e-06 3.358983409088219e-05 0.0001871491723861446" energy=-395.86766730902525 pbc="T T T"
Ni       0.03620588      -0.04453035       0.18209006        4       1.00000000       0.13811967      -0.08491394       0.29850121
Ni       2.51679214      -0.03236028       0.20007410        4       1.00000000      -0.11193458      -0.03609170       0.32837914
Pt       5.13456915      -0.05123566       0.14519268        4       0.00000000      -0.05619423      -0.14500554       0.33366409
Ni       7.73592638      -0.05725054       0.19116612        4       1.00000000       0.02498624      -0.04069953       0.34412692
Ni       1.27905418       2.21254802       0.09526947        4       1.00000000       0.01880648      -0.00944313       0.25230346
Pt       3.75442508       2.22267875       0.17687065        4       0.00000000      -0.10556518       0.05374391       0.23009215
Pt       6.46120167       2.22671239       0.09405261        4       0.00000000       0.06020675       0.07926377      -0.03641435
Pt       9.08063004       2.24702538       0.11577616        4       0.00000000       0.09111093       0.03612544       0.13107722
Ni       2.53914416       4.44789293       0.03570060        4       1.00000000      -0.00099292       0.05369162       0.00062588
Pt       5.13324811       4.52934983       0.06812335        4       0.00000000      -0.04457891       0.16897244      -0.12200544
Ni       7.72180685       4.46410862       0.04791143        4       1.00000000      -0.03213085       0.10757383       0.07963193
Ni      10.31580541       4.43863857       0.03805417        4       1.00000000       0.12830561       0.11292457       0.03559506
Ni       3.83446108       6.66206388       0.06110982        4       1.00000000      -0.03472830       0.13195630       0.17450451
Ni       6.43785153       6.66661579       0.07381035        4       1.00000000       0.03780618       0.10251797       0.17374869
Ni       8.96235361       6.59317817       0.11159530        4       1.00000000      -0.14051403      -0.05857553       0.18414999
Ni      11.60644447       6.58882677       0.03570790        4       1.00000000       0.09866467      -0.08162658       0.05892499
Ni       1.31498392       0.72815204       2.21983563        3       1.00000000       0.00914173       0.03127659       0.15101608
Ni       3.79135254       0.73644115       2.22623674        3       1.00000000      -0.18471085      -0.05213678      -0.04925080
Ni       6.45224723       0.74671371       2.22576942        3       1.00000000       0.04160403      -0.03660953      -0.02255772
Pt       9.03093257       0.71768468       2.23111362        3       0.00000000       0.10934407       0.17934534      -0.07467985
Ni       2.55381761       2.90469353       2.26560735        3       1.00000000       0.01064482      -0.13764550       0.23329167
Ni       5.12864521       2.96547736       2.21581811        3       1.00000000      -0.09224978       0.20619617      -0.06081686
Ni       7.69923621       2.92552242       2.23539286        3       1.00000000       0.02943227      -0.13748616      -0.02140601
Ni      10.33710831       2.90733731       2.25298751        3       1.00000000       0.12594758      -0.10186811       0.16399323
Ni       3.86888719       5.14466784       2.19375282        3       1.00000000       0.01883820      -0.01832247       0.06779665
Ni       6.41519562       5.16682043       2.17501303        3       1.00000000      -0.01244063       0.05746202      -0.03380081
Pt       8.93359936       5.08334218       2.19574224        3       0.00000000      -0.04628918      -0.18120376       0.03015653
Pt      11.64527974       5.07537702       2.19925111        3       0.00000000       0.08752364      -0.14733443       0.08513283
Ni       5.17547641       7.32670852       2.12616313        3       1.00000000       0.04931543      -0.08342083      -0.04274352
Ni       7.63600729       7.36642916       2.13347824        3       1.00000000      -0.16574180      -0.05679865       0.01843297
Pt      10.28220151       7.31594173       2.16713370        3       0.00000000      -0.00271797       0.00687386      -0.22196467
Ni      12.89786311       7.32003447       2.12150159        3       1.00000000       0.11783699      -0.15090499      -0.01622940
Ni       0.06204255       1.49329333       4.33469089        2       1.00000000       0.13262848       0.08194832      -0.07417838
Ni       2.50230836       1.48935174       4.31385077        2       1.00000000      -0.08650660       0.07594747      -0.08098422
Pt       5.12084058       1.48762356       4.25258829        2       0.00000000      -0.16158008       0.05338640      -0.01066992
Ni       7.73942775       1.46540572       4.34395739        2       1.00000000       0.05979547      -0.03932357      -0.07464358
Ni       1.28914540       3.64282922       4.37287583        2       1.00000000       0.01498688      -0.04617026      -0.00651548
Ni       3.79276977       3.69129295       4.30726023        2       1.00000000      -0.11516231       0.01780522      -0.21332779
Pt       6.51139067       3.66977964       4.33666538        2       0.00000000       0.06529864      -0.08714500      -0.11920115
Ni       9.05245824       3.67551395       4.32825852        2       1.00000000       0.19477687      -0.02548749      -0.12221109
Ni       2.56429315       5.79772402       4.36970169        2       1.00000000       0.02400773      -0.11643186      -0.01922227
Pt       5.14745324       5.85201089       4.32681407        2       0.00000000       0.04282761      -0.02421708      -0.10664289
Ni       7.71315916       5.84841604       4.33844025        2       1.00000000      -0.00476753       0.03371033      -0.06224335
Ni      10.30441350       5.78294325       4.37020007        2       1.00000000       0.05824658      -0.14288664      -0.00145172
Pt       3.90397455       8.07848508       4.27317850        2       0.00000000       0.01597436       0.01143086       0.13965718
Ni       6.42293161       8.08982606       4.26844427        2       1.00000000      -0.07512773       0.08073895      -0.16669946
Pt       8.88970876       8.04400305       4.24925784        2       0.00000000      -0.12817198      -0.02032128       0.04424393
Pt      11.60726716       7.99865634       4.27721256        2       0.00000000       0.04266758      -0.05851064       0.06621775
Pt       0.01926689      -0.07148851       6.56543894        1       0.00000000       0.06929829      -0.03233621       0.17762015
Pt       2.54709796      -0.03362826       6.55889256        1       0.00000000      -0.10669289       0.04792356       0.19450858
Pt       5.15057417      -0.04215737       6.48750536        1       0.00000000       0.02612666       0.06800800      -0.38814599
Pt       7.72654643      -0.07753108       6.59538950        1       0.00000000      -0.11508667      -0.03391428       0.17964554
Ni       1.28257704       2.23402735       6.47466851        1       1.00000000      -0.01506526       0.13989047      -0.19755113
Pt       3.81853450       2.30235655       6.44333596        1       0.00000000      -0.03398049       0.25255497      -0.23522483
Ni       6.43884929       2.21222984       6.44121526        1       1.00000000      -0.03759612       0.05048651      -0.24798263
Pt       9.02450470       2.26999847       6.39464796        1       0.00000000      -0.00424551       0.11495293      -0.32766660
Ni       2.53669452       4.42791317       6.46141706        1       1.00000000      -0.09266833       0.13858790      -0.23165630
Ni       5.15394120       4.41726596       6.42948968        1       1.00000000      -0.00681928       0.09013603      -0.22105557
Ni       7.68218975       4.38046328       6.49376741        1       1.00000000      -0.16207185      -0.01122401      -0.11404874
Ni      10.35127237       4.37877816       6.46960674        1       1.00000000       0.24517535      -0.01008802      -0.23134846
Ni       3.84522868       6.52413344       6.49092644        1       1.00000000      -0.04983964      -0.13936366      -0.07194926
Ni       6.41680612       6.53836247       6.48615060        1       1.00000000      -0.00865543      -0.04699890      -0.09152279
Pt       9.00124083       6.45522729       6.50319591        1       0.00000000       0.01906632      -0.10475873       0.08877386
Ni      11.60334914       6.50966983       6.48250564        1       1.00000000       0.02631477      -0.08616697      -0.14779913
