64
Lattice="10.260680260791084 -0.007645869944808418 -0.027331511039816868 5.123718612789306 8.889407907400622 -0.014986782151975237 -0.022316085315598887 -0.001245475852883292 8.822672869027365" Properties=species:S:1:pos:R:3:tags:I:1:initial_magmoms:R:1:forces:R:3 unique_id=ac08494422e0450c80b6828470cf7d1f stress="-0.0003393643067823998 -3.961784510660534e-06 1.109899392358705e-05 -3.961784510660534e-06 -0.00032988373252036685 2.177066411153637e-05 1.109899392358705e-05 2.177066411153637e-05 -0.00027600080929039705" energy=-396.5138476455764 pbc="T T T"
Ni       0.04586945       0.04583956       0.15333104        4       1.00000000       0.19406164       0.15331155       0.19816765
Ni       2.58027197       0.03622726       0.19574858        4       1.00000000       0.03429619       0.07251148       0.26178467
Ni       5.07610133      -0.01481812       0.05742308        4       1.00000000      -0.14337107       0.02173159       0.07008477
Pt       7.70591347      -0.04790905      -0.03808287        4       0.00000000      -0.01608407      -0.01056289      -0.21418975
Ni       1.28390227       2.23503880       0.10355248        4       1.00000000       0.01824689       0.08828261       0.14592231
Ni       3.79927154       2.22575361       0.19587259        4       1.00000000      -0.09263613       0.00442967       0.27080528
Pt       6.38356770       2.31714964       0.14363668        4       0.00000000      -0.06191488       0.16102546       0.46632492
Ni       9.02427203       2.27362095       0.04578880        4       1.00000000       0.08560266       0.13618358       0.04988127
Ni       2.56487066       4.42008246       0.06888709        4       1.00000000      -0.00320602      -0.15658772       0.03590237
Ni       5.06758605       4.44411559       0.15132748        4       1.00000000      -0.24123131       0.03329694       0.25135332
Ni       7.75759592       4.43829790       0.05627753        4       1.00000000       0.25591118       0.02012606       0.05424098
Ni      10.24542659       4.41460175       0.03537782        4       1.00000000      -0.03098314      -0.08545529      -0.00791779
Ni       3.82739100       6.61069399       0.04257130        4       1.00000000      -0.05224304      -0.19829813       0.05410100
Pt       6.45141706       6.66944201      -0.02273686        4       0.00000000       0.03925777       0.01907884      -0.28214921
Ni       8.98487028       6.64566455       0.11140648        4       1.00000000       0.01613822      -0.08726045       0.16363847
Ni      11.51584962       6.61966763       0.00883307        4       1.00000000      -0.10744414      -0.12781013      -0.07082033
Ni       1.33092083       0.78568977       2.15950095        3       1.00000000       0.01862466       0.09975487      -0.05650142
Ni       3.78314788       0.75382852       2.16470246        3       1.00000000       0.02133461      -0.01411310       0.08073367
Pt       6.35364679       0.75490859       2.20989696        3       0.00000000      -0.02325040       0.07898173      -0.08749724
Pt       9.05571755       0.84096342       2.15884167        3       0.00000000       0.02440208      -0.02983428      -0.08467073
Ni       2.57217342       2.94455978       2.16865954        3       1.00000000      -0.05975334       0.03401335       0.00167604
Ni       5.03708527       2.98784974       2.20898061        3       1.00000000      -0.12784102      -0.01482698       0.17002079
Ni       7.74810897       3.00571886       2.19694556        3       1.00000000       0.14535733       0.04365866       0.05029833
Ni      10.26175254       2.97061286       2.16428471        3       1.00000000       0.04986066      -0.02629200       0.02435895
Ni       3.83799528       5.11512766       2.20607324        3       1.00000000      -0.05256558      -0.08157594       0.09283048
Pt       6.44982352       5.14367509       2.17703202        3       0.00000000       0.06134161      -0.00098772      -0.07989605
Ni       8.96372558       5.13672691       2.19148327        3       1.00000000       0.06020740      -0.10447339       0.05699664
Pt      11.51547132       5.08410972       2.13069005        3       0.00000000       0.00199640      -0.04582374      -0.07394931
Pt       5.14995218       7.39402383       2.17151650        3       0.00000000       0.01617643      -0.09025682      -0.21193617
Ni       7.69443772       7.42489253       2.19009320        3       1.00000000      -0.03995179      -0.01075427      -0.01465725
Pt      10.14380625       7.37848140       2.20347573        3       0.00000000      -0.09647311      -0.05774392       0.03220626
Pt      12.80089044       7.33115615       2.18453723        3       0.00000000      -0.03230410      -0.07563101      -0.11226062
Ni      -0.00101756       1.51406328       4.40187649        2       1.00000000       0.05574803      -0.01024334      -0.02570669
Pt       2.50902866       1.50233218       4.28296389        2       0.00000000       0.04840868       0.01307078       0.06365927
Pt       5.07966361       1.43521264       4.36658585        2       0.00000000      -0.02827893       0.02019906       0.13428705
Pt       7.77529462       1.50670483       4.37516640        2       0.00000000       0.02625613       0.06176875       0.08221594
Pt       1.22520864       3.75468110       4.44284675        2       0.00000000      -0.02008499      -0.00688342      -0.00908039
Ni       3.81800194       3.76013822       4.34358297        2       1.00000000      -0.05514424       0.06052277      -0.08044831
Pt       6.42174118       3.76754657       4.35424717        2       0.00000000      -0.05641000       0.05766377       0.04877421
Ni       8.98326202       3.74780449       4.37297714        2       1.00000000       0.02580579       0.15871324      -0.07853922
Ni       2.53584066       5.89822599       4.42811738        2       1.00000000      -0.07062874      -0.08581794      -0.04286884
Ni       5.07927669       5.90393992       4.37175641        2       1.00000000      -0.06858639      -0.13919455      -0.16600590
Ni       7.74209308       5.91091401       4.36060253        2       1.00000000       0.21715538      -0.05421788      -0.16283083
Ni      10.23843140       5.92967351       4.36669735        2       1.00000000       0.00590425      -0.01181361      -0.10692463
Pt       3.79322915       8.05872757       4.42515282        2       0.00000000       0.05396643       0.00706175      -0.00420558
Pt       6.44586535       8.07592907       4.34280604        2       0.00000000       0.05573006       0.01457094       0.01698826
Ni       8.98593135       8.09288460       4.35943222        2       1.00000000      -0.01085221      -0.05360341       0.02637490
Ni      11.48610441       8.07634605       4.41006133        2       1.00000000      -0.09668483      -0.13660386      -0.04190796
Pt      -0.06956388       0.03775531       6.60852115        1       0.00000000      -0.11355646       0.03526581       0.09153961
Pt       2.57282062      -0.02608950       6.61094290        1       0.00000000       0.07861091       0.01430946       0.20748929
Ni       5.15572212      -0.05465824       6.52336139        1       1.00000000       0.07751705      -0.11424712      -0.10436804
Ni       7.64032149      -0.05844281       6.42668614        1       1.00000000      -0.14935582      -0.11135264      -0.34444638
Ni       1.21817835       2.26520437       6.55670062        1       1.00000000      -0.04458562       0.04824060      -0.00289009
Pt       3.77307381       2.27818047       6.60432394        1       0.00000000      -0.16187045       0.11344934       0.19602675
Pt       6.46295653       2.19974412       6.52952824        1       0.00000000       0.12084862      -0.04609012      -0.17613882
Ni       9.00908729       2.27209290       6.52628642        1       1.00000000       0.12509784       0.22190285      -0.11178975
Ni       2.49882650       4.50001509       6.54014175        1       1.00000000      -0.10406689       0.18680708      -0.03353403
Pt       5.08055714       4.55056722       6.56061279        1       0.00000000      -0.01786289       0.16664842       0.15267198
Ni       7.72385927       4.44363093       6.52275336        1       1.00000000       0.10657775      -0.01436674      -0.09507329
Ni      10.25030092       4.41748030       6.52054777        1       1.00000000       0.04306514      -0.01989508      -0.02335698
Ni       3.77047510       6.65783864       6.53203485        1       1.00000000      -0.17628306       0.04545823      -0.06431675
Ni       6.39306894       6.64717150       6.41941643        1       1.00000000       0.06388483      -0.03538097      -0.47200870
Pt       9.02019490       6.58711889       6.50294592        1       0.00000000       0.14145486      -0.07032090       0.09277076
Ni      11.55419458       6.65150255       6.48295830        1       1.00000000       0.06665716      -0.06371989      -0.20123912
