64
Lattice="10.330007402075191 0.017096325901864988 -0.011482474042534512 5.179809553579993 8.884793137272496 -0.04885616857841815 0.0 0.0 21.54982103596422" Properties=species:S:1:pos:R:3:tags:I:1:initial_magmoms:R:1:forces:R:3 unique_id=411b8b48fd144d08805a759bc90df717 energy=-376.7137239292536 stress="0.005652407387103895 8.656859925860938e-05 -7.177554140469662e-05 8.656859925860938e-05 0.004729885139267179 5.620951388327499e-05 -7.177554140469662e-05 5.620951388327499e-05 -0.0020580244426657256" pbc="T T T"
Ni      -0.00891504      -0.02552596       0.15694351        2       1.00000000       0.00805732       0.04436343      -0.12068982
Ni       2.59933893      -0.01778188       0.09713293        1       1.00000000       0.08060146       0.01137227       0.33818330
Ni       5.16594324      -0.03090392       0.14032806        1       1.00000000       0.01119794      -0.00259352      -0.32510504
Ni       7.73728657      -0.04983788       0.14759559        1       1.00000000      -0.08643296      -0.09987699      -0.12701822
Pt       1.29182550       2.22172562       0.15414129        2       0.00000000      -0.06322674      -0.00413246      -0.28558068
Pt       3.86029114       2.17851474       0.15869410        2       0.00000000       0.04208015       0.03965851      -0.50660289
Pt       6.47070564       2.17143311       0.07501558        1       0.00000000       0.02237751      -0.10507503      -0.21189723
Pt       9.04887322       2.27521765       0.09187976        1       0.00000000       0.04607969       0.08514260      -0.60059602
Ni       2.56238293       4.48998255       0.01900534        0       1.00000000      -0.02194145       0.01220024       0.15963683
Pt       5.16377685       4.48244357       0.00000000        0       0.00000000       0.11128520      -0.05235796      -0.26887407
Ni       7.76543915       4.47379305       0.11196717        1       1.00000000      -0.08730407       0.06268923      -0.24524884
Ni      10.34266659       4.50189520       0.01830329        0       1.00000000       0.00394041       0.05862402       0.19557567
Ni       3.84061168       6.69649121       0.02957115        0       1.00000000      -0.02442377       0.08847345       0.29786794
Pt       6.49756755       6.73368493       0.05103959        1       0.00000000       0.03164312      -0.03131226       0.03448144
Ni       9.06585307       6.67817045       0.09090459        1       1.00000000      -0.02845259       0.02656312      -0.17748993
Ni      11.64919659       6.67517689       0.00748257        0       1.00000000       0.05236226       0.06836047       0.31762933
Ni       1.32118665       0.71352828       2.23708566        4       1.00000000       0.07357023      -0.02839565       0.25146302
Ni       3.82412596       0.73480597       2.19872604        4       1.00000000      -0.25287446      -0.04083607       0.10479520
Ni       6.46603806       0.74428619       2.19403267        4       1.00000000       0.08846849       0.03566063       0.15563281
Pt       9.04516590       0.74170868       2.20736826        4       0.00000000       0.07588969       0.13167615      -0.06155967
Ni       2.58280198       2.91719445       2.26352466        5       1.00000000       0.00532240      -0.09827513       0.36576088
Ni       5.17703507       2.94751474       2.20214463        4       1.00000000      -0.00845307       0.05343039       0.13444171
Ni       7.73296744       2.95783295       2.20631741        4       1.00000000       0.01994838      -0.07364918       0.14633433
Ni      10.34597553       2.95147198       2.25302477        5       1.00000000       0.02672367      -0.09237315       0.40354587
Pt       3.88673101       5.18139717       2.19514735        4       0.00000000      -0.00502494      -0.01786729      -0.05635221
Ni       6.47154001       5.19050223       2.17005331        4       1.00000000      -0.05557430       0.06695012       0.13111516
Pt       8.98968569       5.15484265       2.19017241        4       0.00000000      -0.01124877      -0.01875873       0.14742778
Pt      11.62777752       5.14487126       2.17802077        4       0.00000000      -0.03577510      -0.12614841       0.08884949
Ni       5.20503570       7.40642374       2.15288449        4       1.00000000       0.04967060      -0.00040248       0.15570287
Ni       7.72032692       7.43445901       2.16521562        4       1.00000000      -0.13561626       0.08225309       0.19237113
Pt      10.36577400       7.45554349       2.12088028        3       0.00000000       0.04474360      -0.04274597       0.12790767
Ni      12.92037808       7.41826202       2.12463215        3       1.00000000       0.02479183      -0.02831265       0.06405065
Ni       0.03405622       1.48039960       4.29583990        7       1.00000000       0.11195378       0.02677824      -0.28996382
Ni       2.53970629       1.47604448       4.28582168        7       1.00000000      -0.09430697       0.04279401      -0.29729160
Pt       5.17638427       1.45550100       4.23773816        6       0.00000000      -0.00178474      -0.09239868      -0.09858707
Ni       7.74552748       1.47307894       4.31247826        7       1.00000000       0.01269702      -0.04346695      -0.25313448
Ni       1.29392721       3.69807031       4.32008141        7       1.00000000       0.00986961      -0.00823404      -0.13676452
Ni       3.81189379       3.70375798       4.31887939        7       1.00000000      -0.18716593      -0.01311554      -0.21616415
Pt       6.50584181       3.68184411       4.26175622        7       0.00000000       0.09816456      -0.04450392      -0.11548540
Ni       9.09232163       3.70620239       4.29794150        7       1.00000000       0.17636594      -0.01902915      -0.15592638
Ni       2.54694332       5.87583096       4.37722278        8       1.00000000      -0.08161281      -0.06695693       0.00213262
Pt       5.18842627       5.92030342       4.36086198        8       0.00000000       0.10252336       0.03285234      -0.02299790
Ni       7.75648554       5.91185431       4.30301400        7       1.00000000       0.00398148      -0.04412451      -0.20984324
Ni      10.36760336       5.87893241       4.35299245        8       1.00000000       0.03597741      -0.00455993       0.00505242
Pt       3.85355755       8.11563796       4.27057789        7       0.00000000      -0.08752673       0.03874614      -0.00594185
Ni       6.47585019       8.15243168       4.27928817        7       1.00000000      -0.11815761       0.16728027      -0.27082087
Pt       8.97127641       8.11303704       4.26127552        7       0.00000000      -0.06974217       0.02928510       0.04091670
Ni      11.63184257       8.09193398       4.28771546        7       1.00000000      -0.07829634      -0.14447105      -0.12380200
Pt       0.05951922      -0.10589709       6.53003935       10       0.00000000       0.01446147       0.09495849       0.09563484
Ni       2.57296837      -0.03935411       6.49686541       10       1.00000000       0.04792178       0.07176235      -0.14637804
Pt       5.15537029      -0.03144272       6.54982104       10       0.00000000       0.10123598       0.04652501       0.23499363
Pt       7.72679554      -0.08354545       6.53274801       10       0.00000000      -0.01994125      -0.01514096       0.24677886
Pt       1.30650051       2.25372676       6.38612400        9       0.00000000       0.05744888       0.03268140       0.33265806
Pt       3.88546814       2.27363707       6.42063226        9       0.00000000      -0.10352290       0.18694303       0.39276020
Ni       6.44643790       2.21127005       6.42532302        9       1.00000000       0.01358566      -0.05623006       0.10045213
Pt       9.02992975       2.22516953       6.36179349        9       0.00000000       0.01621324      -0.06369102       0.52428535
Ni       2.57541325       4.47761929       6.45002199       10       1.00000000       0.05071257      -0.03456015      -0.35705920
Ni       5.13778024       4.44475985       6.39875610        9       1.00000000      -0.08675806       0.04336045       0.24124359
Pt       7.69808676       4.44214195       6.50243718       10       0.00000000      -0.01469529       0.00857577       0.20813738
Ni      10.37670693       4.45981148       6.44275510        9       1.00000000      -0.00093134       0.02018421      -0.28918904
Ni       3.85636091       6.57345664       6.47729085       10       1.00000000      -0.03957420      -0.07945972      -0.20400138
Ni       6.46241994       6.63313538       6.40094409        9       1.00000000       0.12767358      -0.00027514       0.15452453
Pt       9.05886221       6.61098244       6.48576388       10       0.00000000       0.00924953      -0.15250469       0.12178565
Ni      11.65418255       6.57948431       6.44360111        9       1.00000000      -0.00842499       0.03569084      -0.33376349
