64
Lattice="10.174982191385622 -0.023330694172248995 0.03341553271608242 5.067286121851721 8.81151666165976 -0.023130115550637105 0.0 0.0 21.507270903715508" Properties=species:S:1:pos:R:3:tags:I:1:initial_magmoms:R:1:forces:R:3 unique_id=e6c05e033447480bba98c744f74aebee energy=-371.1560252645424 stress="0.004574944308683633 -0.00015437806885426966 0.00028899316454183933 -0.00015437806885426966 0.004915483477101481 -0.00028354208398313763 0.00028899316454183933 -0.00028354208398313763 -0.0015370490980410254" pbc="T T T"
Ni       0.03295828       0.03740690       0.06012033        1       1.00000000       0.11315779       0.00015972       0.16883990
Ni       2.50277385      -0.00590971       0.15944360        2       1.00000000      -0.04573785      -0.00368637      -0.23892522
Pt       5.08087634      -0.02860754       0.01864195        0       0.00000000       0.11385033       0.02674048      -0.37156088
Pt       7.72510887       0.04073267       0.07932215        1       0.00000000      -0.05489037      -0.01675975       0.11323275
Ni       1.22449656       2.14528301       0.06056242        1       1.00000000      -0.00514605       0.00543689       0.18408646
Pt       3.83742753       2.21384331       0.00000000        0       0.00000000       0.06228428       0.04278599      -0.43573520
Ni       6.40100342       2.24745839       0.08462386        1       1.00000000       0.04586057      -0.01494010       0.30319557
Ni       8.89981944       2.18147579       0.09297856        1       1.00000000      -0.01765094       0.00637698       0.35267157
Pt       2.57832659       4.43752790       0.08104293        1       0.00000000      -0.02020519      -0.00437290      -0.73623728
Ni       5.12775036       4.38526661       0.07266892        1       1.00000000      -0.00067414      -0.06058929       0.18820426
Ni       7.58777875       4.34495892       0.08433516        1       1.00000000      -0.00091918      -0.01826698       0.36053165
Pt      10.07905688       4.31881281       0.08326277        1       0.00000000       0.06833246       0.03917138       0.10045697
Ni       3.82823201       6.62060494       0.03058927        0       1.00000000       0.06622599       0.04102184      -0.01344207
Pt       6.34334215       6.55677210       0.08770496        1       0.00000000       0.03529644      -0.10482025      -0.84580412
Ni       8.87007724       6.57360497       0.12598749        1       1.00000000      -0.00373343      -0.10988133      -0.13783684
Pt      11.43543268       6.58608510       0.08036577        1       0.00000000      -0.02232472       0.00554733      -0.13595385
Ni       1.22539036       0.74003423       2.14752958        3       1.00000000      -0.06253231       0.08736862       0.11325713
Pt       3.87154044       0.70574029       2.22754290        4       0.00000000       0.18487026      -0.04721797      -0.03360053
Ni       6.42893199       0.72530280       2.21855321        4       1.00000000       0.15464115      -0.00047449       0.09937402
Ni       8.88615620       0.76029579       2.22038553        4       1.00000000      -0.17128882       0.18008842       0.11672075
Pt       2.48904621       2.97981738       2.23766573        4       0.00000000      -0.07795215       0.09479177      -0.09151426
Ni       5.15306542       2.96140937       2.18314532        4       1.00000000       0.08994658      -0.00512824       0.09448099
Ni       7.63656247       2.91701667       2.19264601        4       1.00000000       0.06443474      -0.02879857       0.12097144
Ni      10.11824251       2.90251166       2.21312065        4       1.00000000      -0.19100611       0.05284748       0.16196870
Ni       3.81737890       5.13733389       2.18143007        4       1.00000000      -0.03779891       0.02774787      -0.03245126
Ni       6.37198875       5.03839503       2.18762807        4       1.00000000       0.12581987      -0.17833411       0.16171753
Ni       8.89977501       5.06867912       2.23166968        4       1.00000000      -0.00800384      -0.18864065       0.24755377
Ni      11.40687299       5.14673098       2.26843955        5       1.00000000      -0.12297175       0.08810692       0.28462317
Pt       4.98744791       7.38888429       2.18721523        4       0.00000000      -0.13995232       0.17827284      -0.03754493
Pt       7.66185319       7.25349610       2.25807723        5       0.00000000       0.01853788      -0.12578280       0.21169443
Ni      10.21146772       7.27876575       2.24618416        4       1.00000000       0.12076551      -0.04290217       0.30752315
Ni      12.67159415       7.31557492       2.24355653        4       1.00000000      -0.19850682       0.00943540       0.26137504
Pt      -0.07850775       1.46877769       4.31998189        6       0.00000000      -0.08463147       0.05284457      -0.01403091
Pt       2.52553189       1.47530415       4.35341984        7       0.00000000      -0.04798930       0.03417201       0.10951668
Pt       5.20641285       1.45759389       4.36366132        7       0.00000000       0.08815816       0.04880971      -0.09019569
Ni       7.64452549       1.44047537       4.34620283        6       1.00000000       0.03020875       0.07107870      -0.18408160
Ni       1.21675089       3.71665975       4.29276812        6       1.00000000      -0.27062678       0.13704758      -0.23448504
Ni       3.84528923       3.65559381       4.30238139        6       1.00000000       0.11264885      -0.09397404      -0.24704109
Ni       6.41922528       3.64848885       4.32928350        6       1.00000000       0.18136747       0.05243888      -0.17100773
Ni       8.87986288       3.66682057       4.33317707        6       1.00000000      -0.09336966       0.03375035      -0.14176682
Ni       2.49709557       5.89125022       4.26215982        6       1.00000000      -0.13241339       0.08121308      -0.35550664
Pt       5.03672306       5.79370081       4.26766835        6       0.00000000      -0.01259655      -0.01721813       0.08411661
Ni       7.66944429       5.79017702       4.30383009        6       1.00000000       0.08129992      -0.22494756      -0.08618731
Ni      10.19809733       5.82465625       4.28885199        6       1.00000000      -0.01371763       0.01317228      -0.23203632
Ni       3.74994634       8.05830373       4.32695978        6       1.00000000      -0.12413834      -0.04204693      -0.07163381
Ni       6.33781251       8.05397104       4.31226713        6       1.00000000      -0.11435414       0.01795686      -0.04958020
Ni       8.93934068       7.99925194       4.32304379        6       1.00000000       0.11903977      -0.08839915      -0.11478883
Ni      11.47288158       8.00942227       4.32022348        6       1.00000000       0.01116926      -0.03744189      -0.22941003
Ni      -0.03941580      -0.00386620       6.44689973        9       1.00000000      -0.09376432      -0.06155431      -0.19075054
Pt       2.56057864       0.01860479       6.50727090       10       0.00000000       0.09602718      -0.18467778       0.48567206
Ni       5.16264180      -0.03040146       6.36536453        9       1.00000000       0.12012143      -0.11382320       0.31094203
Ni       7.65150893      -0.03452544       6.36758055        9       1.00000000      -0.04457537       0.08834754      -0.07103095
Ni       1.23392341       2.19903902       6.46070539       10       1.00000000      -0.10081847       0.15645397      -0.02665251
Ni       3.87587986       2.20809791       6.37420021        9       1.00000000       0.07840679       0.14029922       0.55760828
Ni       6.40873528       2.18186549       6.46510562       10       1.00000000       0.17332584       0.00073112      -0.23963180
Ni       8.88689318       2.16961431       6.47243872       10       1.00000000      -0.17013569       0.05399710      -0.29714308
Pt       2.54723825       4.39702409       6.31915946        8       0.00000000      -0.04577575       0.07096927       0.52786321
Ni       5.10974129       4.32448684       6.43779275        9       1.00000000       0.00525935      -0.12290949      -0.28093925
Ni       7.64381646       4.30328053       6.42997912        9       1.00000000       0.01965849      -0.05640571      -0.33186872
Ni      10.17032148       4.32112534       6.35902699        9       1.00000000      -0.02754160      -0.11426526      -0.05727037
Ni       3.77994671       6.62361299       6.41554374        9       1.00000000      -0.11089158       0.09434330      -0.22409695
Pt       6.32173244       6.54003951       6.37247033        9       0.00000000       0.15608886       0.01686329       0.99544131
Pt       8.98668646       6.51817384       6.41820703        9       0.00000000       0.03804512      -0.01442918       0.12063416
Ni      11.48595636       6.59917812       6.34737985        8       1.00000000       0.09378581       0.07229983      -0.09253099
