64
Lattice="10.324520339555196 -0.01738623254214356 0.06740072329229047 5.14720325072 8.864118166356707 0.03756565683615866 0.05503246012021097 0.003644235253528689 8.828110587690986" Properties=species:S:1:pos:R:3:tags:I:1:initial_magmoms:R:1:forces:R:3 unique_id=1f2c63a9e3554db091985e79490653c3 stress="0.0002772245506778362 4.900407184494469e-06 -2.6728351070517125e-05 4.900407184494469e-06 0.00029033862408234246 1.1836777663844053e-05 -2.6728351070517125e-05 1.1836777663844053e-05 0.00026487266327945846" energy=-398.44342160289216 pbc="T T T"
Ni       0.01578711       0.00584678       0.17458614        4       1.00000000       0.08390775       0.06458983       0.33002650
Ni       2.58483385       0.00689208       0.21524845        4       1.00000000       0.02941773       0.03558774       0.44428788
Ni       5.16201930      -0.02702497       0.18461851        4       1.00000000      -0.02481813       0.06863832       0.22314127
Ni       7.74643993      -0.06861234       0.23593723        4       1.00000000       0.01640779      -0.08328545       0.39779344
Ni       1.29665204       2.22283409       0.11535177        4       1.00000000       0.04803350       0.00568801       0.25078393
Pt       3.78439677       2.17543158       0.20564504        4       0.00000000      -0.02427123       0.04017507       0.13573551
Pt       6.45277351       2.12811925       0.14736662        4       0.00000000       0.07258386      -0.06625174      -0.03665287
Pt       9.13035693       2.20491667       0.17933640        4       0.00000000       0.14827587       0.00307797       0.11252200
Ni       2.53421494       4.45525921       0.07027551        4       1.00000000      -0.02305760       0.02965493      -0.02560450
Pt       5.10692375       4.46058226       0.06894639        4       0.00000000      -0.04265784       0.04742809      -0.17800675
Pt       7.78907576       4.46689042       0.08025058        4       0.00000000       0.14028791       0.10148627      -0.18673726
Ni      10.37751583       4.44819251       0.12838849        4       1.00000000       0.13276486       0.09173711       0.08339351
Ni       3.81215751       6.69108290       0.11442792        4       1.00000000      -0.06005384       0.11406382       0.16945683
Pt       6.45023248       6.74901377       0.23779884        4       0.00000000       0.02105944       0.07223937       0.27377344
Ni       9.06628192       6.67767844       0.13133394        4       1.00000000       0.07639540       0.08842655       0.07182932
Ni      11.62753711       6.64186085       0.13883017        4       1.00000000       0.13065621       0.01712690       0.03463000
Ni       1.33545799       0.74906779       2.24363910        3       1.00000000       0.05177066       0.05531088       0.15258141
Ni       3.85009619       0.76078140       2.27520450        3       1.00000000      -0.07708037       0.15724068       0.13788623
Ni       6.45902353       0.76162000       2.28555159        3       1.00000000      -0.03222431       0.12360415       0.14664877
Pt       9.06063618       0.72627511       2.30884782        3       0.00000000       0.03603723       0.22186314      -0.03977461
Ni       2.56409465       2.90238979       2.29590623        3       1.00000000      -0.05000023      -0.11880339       0.20983620
Ni       5.17005516       2.91300880       2.30546029        3       1.00000000      -0.10920248      -0.08324269       0.01878398
Ni       7.73016711       2.92388498       2.30996323        3       1.00000000       0.02608748      -0.06931747      -0.09209952
Ni      10.37649689       2.91036385       2.33089966        3       1.00000000       0.10353557      -0.10433493       0.15706348
Pt       3.88139630       5.16699821       2.27184730        3       0.00000000      -0.02452936      -0.10717484      -0.19668235
Ni       6.46005850       5.16149043       2.28525508        3       1.00000000       0.00473526      -0.03202061      -0.10648749
Pt       8.99153314       5.13221186       2.32839608        3       0.00000000      -0.15327332      -0.10882141      -0.12403720
Pt      11.63225460       5.10068991       2.26738534        3       0.00000000      -0.00736588      -0.09086655       0.07082937
Ni       5.18493424       7.41254867       2.27161902        3       1.00000000       0.07261337       0.04607916       0.10390445
Ni       7.71178647       7.42710441       2.29969565        3       1.00000000      -0.11296042       0.06062655       0.12210001
Pt      10.32209078       7.43048605       2.20606430        3       0.00000000       0.00053332      -0.03337351      -0.04420069
Ni      12.91941535       7.37522892       2.27167125        3       1.00000000       0.02738001      -0.07589291       0.02625672
Ni       0.08385218       1.52834115       4.35698448        2       1.00000000       0.17638494       0.07078197      -0.10151960
Ni       2.56453258       1.52199007       4.35777763        2       1.00000000      -0.06762991       0.05666185      -0.11050224
Ni       5.17238099       1.49897781       4.37871134        2       1.00000000      -0.14652192      -0.00153490      -0.15363772
Ni       7.77338112       1.49318808       4.41844865        2       1.00000000       0.06049394      -0.05854346      -0.06797952
Ni       1.33423197       3.64531424       4.42190948        2       1.00000000       0.04650462      -0.08464295      -0.06337607
Ni       3.84410636       3.68153426       4.38428976        2       1.00000000      -0.14197263      -0.11036656      -0.20159756
Pt       6.50094751       3.63468245       4.40780936        2       0.00000000      -0.01071306      -0.08042124      -0.16162012
Ni       9.06584726       3.66022367       4.41649856        2       1.00000000       0.07565622      -0.19413473      -0.24978900
Ni       2.59340470       5.86242049       4.45802608        2       1.00000000      -0.03799382      -0.10165095       0.02055006
Pt       5.17892433       5.87900607       4.40159288        2       0.00000000       0.16041283       0.03456340       0.07800990
Ni       7.76364742       5.88661246       4.43117063        2       1.00000000      -0.06170172       0.00690030      -0.07818450
Pt      10.34921914       5.81402903       4.55756766        2       0.00000000       0.03783603      -0.03990377       0.05602462
Pt       3.92393271       8.13283857       4.38972118        2       0.00000000      -0.03856667      -0.00617455       0.19656609
Ni       6.46951066       8.15980545       4.37745938        2       1.00000000      -0.03919520       0.10048007      -0.09343810
Pt       8.96700366       8.15226224       4.38872355        2       0.00000000      -0.09157726       0.08114683       0.14720584
Pt      11.64082387       8.14052431       4.40357581        2       0.00000000       0.04384668       0.05332506       0.06741865
Pt       0.04512198       0.01313437       6.57324441        1       0.00000000      -0.02488150       0.01401884       0.14054928
Pt       2.60452410       0.01806623       6.60209983        1       0.00000000      -0.04735303       0.08942453       0.17188821
Pt       5.19561249      -0.04372971       6.62897411        1       0.00000000      -0.01992773      -0.07451535       0.02137345
Pt       7.77008852      -0.05102676       6.66780811        1       0.00000000      -0.11031480      -0.08797977       0.22046032
Ni       1.32200806       2.28215441       6.52488785        1       1.00000000      -0.01954445       0.18889452      -0.21644351
Pt       3.88986969       2.31003005       6.46903722        1       0.00000000      -0.06055810       0.11834639      -0.17595851
Ni       6.48611169       2.23406464       6.51338383        1       1.00000000      -0.03427043      -0.00790465      -0.23048216
Pt       9.07703670       2.29622615       6.48704620        1       0.00000000      -0.02902712       0.04902520      -0.31868412
Ni       2.57812270       4.46176010       6.53800053        1       1.00000000      -0.13862553       0.05726186      -0.26224153
Ni       5.17674804       4.42098421       6.49630701        1       1.00000000      -0.05925662      -0.00432544      -0.38684973
Ni       7.78965125       4.42542212       6.49336063        1       1.00000000       0.07731814      -0.00550536      -0.47253290
Ni      10.38770940       4.42554321       6.62662538        1       1.00000000       0.11586392      -0.04241745      -0.03813668
Ni       3.85828564       6.58212768       6.57985663        1       1.00000000      -0.08638824      -0.19104877      -0.09941974
Pt       6.50609576       6.56062886       6.54673293        1       0.00000000      -0.02867107      -0.06284746      -0.13018210
Ni       9.07756702       6.57886307       6.62007958        1       1.00000000      -0.01853739      -0.13514438      -0.07708468
Ni      11.65396287       6.56638809       6.64065077        1       1.00000000       0.03792263      -0.10302809      -0.07336734
