64
Lattice="10.207738343201607 -0.003937312380272304 0.011526507848045361 5.100459359056854 8.74988952215331 -0.07734839605136014 0.0 0.0 21.462655095215748" Properties=species:S:1:pos:R:3:tags:I:1:initial_magmoms:R:1:forces:R:3 unique_id=292a20f0c13e4dcb86e65cf1dc68cdb9 stress="0.004906212688563475 -6.561615415372028e-05 -8.983863824879328e-06 -6.561615415372028e-05 0.003998548656771548 -0.0005848446443742013 -8.983863824879328e-06 -0.0005848446443742013 -0.0024096043380042696" energy=-370.56550511000404 pbc="T T T"
Ni      -0.00481185      -0.01545878       0.05742301        1       1.00000000       0.09150738      -0.10714950       0.08146871
Pt       2.55277291      -0.00668497       0.08349101        1       0.00000000      -0.01120546      -0.10297235       0.05191554
Ni       5.11054668       0.04194681       0.09278933        1       1.00000000       0.00222181      -0.00979475       0.22324126
Ni       7.66315847       0.02994175       0.06188822        1       1.00000000      -0.06012900      -0.05401429       0.02063200
Ni       1.25060353       2.12705127       0.06152224        1       1.00000000      -0.01753419      -0.04068157       0.25242542
Ni       3.86524773       2.14290584       0.04005829        0       1.00000000      -0.02640253      -0.04940196       0.01985742
Ni       6.38033559       2.12505184       0.04163483        0       1.00000000       0.09430497      -0.07472119       0.05049857
Ni       8.92008071       2.12533089       0.03879248        0       1.00000000      -0.05776628       0.07716431      -0.03572915
Pt       2.61301810       4.29908840       0.05658560        1       0.00000000      -0.07958278      -0.01727631      -0.77719920
Ni       5.11708154       4.36822129       0.01241156        0       1.00000000      -0.07390831       0.01514085       0.07897525
Pt       7.57582213       4.35262296       0.04430555        0       0.00000000      -0.00641350       0.01456786      -0.07796636
Pt      10.17035542       4.30541117       0.00914351        0       0.00000000       0.00814400       0.03481513      -0.34888677
Ni       3.87719398       6.60058071       0.11194375        1       1.00000000      -0.01897327       0.10389795      -0.27396046
Ni       6.34375103       6.56164458       0.12629955        1       1.00000000      -0.01261142      -0.00298566      -0.17214246
Ni       8.91030292       6.56983997       0.11939199        1       1.00000000      -0.00931019      -0.06211673      -0.04566052
Pt      11.48182836       6.65743313       0.00000000        0       0.00000000       0.05636009      -0.06312877      -0.13704821
Ni       1.30083869       0.72626816       2.17922248        3       1.00000000       0.09573809       0.03981969       0.12014318
Ni       3.81824952       0.67197098       2.18575571        3       1.00000000      -0.06622916      -0.09837914       0.17057216
Ni       6.36743993       0.66004873       2.13856678        2       1.00000000      -0.05675757      -0.11030374       0.04666242
Pt       8.95416229       0.71604418       2.11131498        2       0.00000000       0.01930473      -0.01741981      -0.03167965
Ni       2.52926616       2.82527018       2.18683030        3       1.00000000      -0.01122029      -0.08810911       0.07973433
Pt       5.13483503       2.85968973       2.12053308        2       0.00000000      -0.01550939       0.00521103      -0.06329660
Ni       7.66803447       2.90959565       2.14832243        2       1.00000000       0.06527900       0.03444027       0.05096033
Ni      10.22663504       2.86531368       2.16456932        3       1.00000000       0.14086555       0.00872635       0.00427889
Pt       3.88774233       5.14573519       2.20659765        3       0.00000000       0.02564866       0.05689372       0.11022719
Ni       6.41724389       5.12139366       2.17741674        3       1.00000000       0.10696264       0.03856217       0.31238036
Ni       8.88860353       5.11812151       2.16562557        3       1.00000000      -0.03662708       0.11487252       0.12028696
Pt      11.43066044       5.09060831       2.25445824        4       0.00000000      -0.11325144       0.00279887       0.01597573
Ni       5.16196831       7.28735784       2.07824755        2       1.00000000       0.19211832       0.12138786       0.04553824
Ni       7.67543157       7.25503171       2.11984661        2       1.00000000       0.10427160      -0.02466529       0.11611676
Ni      10.16430448       7.31596370       2.15427047        3       1.00000000      -0.06455776       0.04333062       0.10073846
Ni      12.73323954       7.30521516       2.12778916        2       1.00000000      -0.19139480       0.00617674       0.09816805
Ni       0.05127527       1.45214237       4.31873195        6       1.00000000       0.01514182       0.01417362      -0.13736454
Ni       2.53389513       1.46386251       4.30264474        6       1.00000000      -0.04749880       0.13198313      -0.12975545
Pt       5.03335274       1.38976826       4.34483647        6       0.00000000      -0.07239353      -0.03346575      -0.01533566
Pt       7.62849299       1.44060964       4.34709296        6       0.00000000      -0.07227428       0.03941984      -0.05277870
Ni       1.28314738       3.55971602       4.24934503        5       1.00000000       0.04680400      -0.12022746      -0.20543597
Ni       3.83596940       3.60541767       4.26648041        6       1.00000000      -0.01647802       0.01778062      -0.13183928
Ni       6.36103789       3.65526456       4.30367125        6       1.00000000      -0.04296363       0.07667016      -0.11224356
Pt       8.96536405       3.65673723       4.26068348        6       0.00000000       0.03147897       0.10303598      -0.15766485
Ni       2.51728539       5.78666483       4.26848081        6       1.00000000      -0.02893366       0.03048530      -0.07662544
Ni       5.13589989       5.73929745       4.27179751        6       1.00000000       0.11652398       0.01402438       0.08356698
Ni       7.66220798       5.79063173       4.21365757        5       1.00000000       0.00935985       0.11382716      -0.25077631
Ni      10.21981299       5.83561710       4.26989943        6       1.00000000      -0.06011114       0.11135161      -0.14053388
Pt       3.81583048       7.94476125       4.21106447        5       0.00000000       0.03399233      -0.11149308       0.04779862
Pt       6.44317360       8.01097047       4.19042720        5       0.00000000       0.06781530       0.01734139       0.02029782
Ni       8.95422133       7.95709024       4.21480821        5       1.00000000       0.01378110      -0.12290676      -0.23496404
Ni      11.44642638       7.93732155       4.25097266        6       1.00000000      -0.05733562      -0.01946904      -0.14185895
Ni       0.00609542       0.02040860       6.44247802        8       1.00000000       0.00704821      -0.00534680      -0.11880278
Ni       2.57612783       0.01646589       6.36064177        8       1.00000000       0.11471612       0.04679442       0.10456145
Ni       5.13233242      -0.02710864       6.44255037        8       1.00000000       0.02935699      -0.00561851      -0.11521126
Ni       7.62758984      -0.01293958       6.46265510        9       1.00000000      -0.08156453       0.02599509      -0.03461126
Ni       1.25758266       2.10101441       6.38643548        8       1.00000000      -0.02793724       0.00090698      -0.28014904
Ni       3.83649898       2.11294132       6.42352715        8       1.00000000      -0.09409914       0.01275131      -0.05308190
Ni       6.37395269       2.14818424       6.44983078        8       1.00000000       0.00581628       0.04479125      -0.07058167
Ni       8.95612903       2.12976398       6.43656959        8       1.00000000       0.04077442       0.06946013      -0.12832673
Pt       2.52817584       4.24956713       6.27541110        7       0.00000000      -0.00917377      -0.09675525       0.81800751
Ni       5.12680350       4.25964950       6.37178884        8       1.00000000      -0.05500990      -0.04726641      -0.13086269
Ni       7.64884044       4.27099002       6.32301418        7       1.00000000      -0.02744576      -0.00868967       0.18672958
Ni      10.21650714       4.29072612       6.31318186        7       1.00000000       0.05196292      -0.02477946       0.30279184
Pt       3.78972500       6.53346688       6.43150873        8       0.00000000       0.00561063      -0.09259453       0.37839475
Pt       6.39372919       6.48646853       6.40461856        8       0.00000000       0.04271455      -0.03687815       0.21937996
Pt       8.99725243       6.52280782       6.36244483        8       0.00000000      -0.06232840       0.01068328       0.11075427
Ni      11.48377706       6.53497482       6.26953713        7       1.00000000       0.04930753       0.04932945       0.23929330
