64
Lattice="10.244670815174059 -0.008656327552485419 -0.013191196479930695 5.114838808023096 8.84339473753388 -0.034299225269586876 -0.010770566824209283 -0.026119230048144513 8.75412887330982" Properties=species:S:1:pos:R:3:tags:I:1:initial_magmoms:R:1:forces:R:3 unique_id=0199803096284d8698c40cb5f97a8277 stress="0.00015293067638438157 5.455398903850931e-07 2.7804073031119316e-06 5.455398903850931e-07 0.0001548542750336862 1.252821801356607e-05 2.7804073031119316e-06 1.252821801356607e-05 0.00015530657418142552" energy=-395.5090967558433 pbc="T T T"
Ni       0.00247072       0.00827253       0.18586676        4       1.00000000       0.05783184       0.02046555       0.26258909
Ni       2.55403229      -0.00822653       0.21073336        4       1.00000000      -0.01032101      -0.03586391       0.35915040
Ni       5.12482145      -0.02200685       0.15325636        4       1.00000000      -0.00679476       0.10006643       0.21470046
Ni       7.69015320      -0.05121899       0.07521354        4       1.00000000      -0.01415382      -0.11196521       0.10854194
Ni       1.24092360       2.21293777       0.18603456        4       1.00000000      -0.15787735       0.01535786       0.30060684
Pt       3.78335401       2.20849798       0.09778808        4       0.00000000      -0.08621334       0.01612690      -0.14860152
Pt       6.45716762       2.20033853       0.17765291        4       0.00000000       0.11035297      -0.06617227       0.26845611
Ni       8.99548112       2.22851551       0.13498701        4       1.00000000       0.10169586       0.11567457       0.11264222
Ni       2.52949530       4.43659317       0.03968444        4       1.00000000      -0.14676293      -0.00300342      -0.06848150
Ni       5.12742935       4.42003743       0.14430126        4       1.00000000       0.14137224      -0.11545710       0.29088682
Ni       7.72131820       4.42091862       0.09070365        4       1.00000000       0.14506521      -0.01019120       0.18620596
Ni      10.22363908       4.40213861       0.05380218        4       1.00000000      -0.10188803      -0.05929573       0.04785436
Ni       3.80438371       6.64924491       0.05337859        4       1.00000000      -0.05933907       0.06731137       0.06031895
Pt       6.40057677       6.62443958       0.07975642        4       0.00000000      -0.03294301      -0.04230471      -0.16538462
Ni       8.96452815       6.60366154       0.12899140        4       1.00000000      -0.04202911      -0.12902928       0.18252290
Ni      11.53737381       6.62391116       0.02277983        4       1.00000000       0.03865921      -0.05231410      -0.06212826
Ni       1.28659119       0.74850073       2.15409707        3       1.00000000      -0.03159938       0.07964304       0.01692449
Ni       3.83584159       0.74565269       2.18556609        3       1.00000000       0.07186068       0.01811338       0.02602462
Ni       6.39442349       0.73097286       2.23551308        3       1.00000000       0.01156648       0.04829125       0.17986193
Pt       8.95317995       0.76047614       2.16062031        3       0.00000000      -0.07631876       0.06770469       0.04204430
Ni       2.53410062       2.92233425       2.18601817        3       1.00000000      -0.05760886       0.05745440      -0.05141055
Ni       5.11321814       2.91175187       2.21727006        3       1.00000000      -0.08817443      -0.12666157       0.02167967
Ni       7.71878763       2.97813668       2.19464543        3       1.00000000       0.20114207       0.08271843      -0.05151521
Ni      10.22844915       2.93172339       2.18255926        3       1.00000000      -0.03304131       0.00585980       0.14163520
Pt       3.84671064       5.13720749       2.13243058        3       0.00000000      -0.07957241      -0.03392900      -0.04390475
Ni       6.44920917       5.13951488       2.16052937        3       1.00000000       0.10276999       0.03286396      -0.04980721
Ni       8.91978600       5.11395179       2.17515739        3       1.00000000      -0.00988514      -0.02546219       0.08783831
Pt      11.47751034       5.08719986       2.17458952        3       0.00000000      -0.06149630      -0.07173141      -0.03571881
Ni       5.11695755       7.37184860       2.14034565        3       1.00000000      -0.07808738      -0.01423022      -0.06873212
Ni       7.66717139       7.35015112       2.15085007        3       1.00000000       0.03488276      -0.09454562       0.02920297
Pt      10.25250050       7.37340389       2.10790839        3       0.00000000       0.05683594      -0.05625577       0.04318503
Ni      12.79313384       7.36705029       2.12706568        3       1.00000000      -0.01376434      -0.03509679      -0.09042825
Ni      -0.02306875       1.52137490       4.31564994        2       1.00000000      -0.00431961       0.14851828      -0.06122570
Pt       2.57015484       1.55681345       4.25104884        2       0.00000000      -0.04405413       0.08176967       0.02745295
Ni       5.13727164       1.45818227       4.28448151        2       1.00000000       0.07112642      -0.01745422      -0.16267019
Ni       7.67045964       1.44911599       4.29803709        2       1.00000000      -0.03633548       0.05482004      -0.07551459
Ni       1.24489014       3.72253045       4.33634786        2       1.00000000      -0.04206134       0.00331094      -0.04937089
Ni       3.80678292       3.68214559       4.33382301        2       1.00000000      -0.01315278       0.09270618      -0.11432947
Pt       6.45573821       3.64530303       4.22059662        2       0.00000000       0.01554360      -0.03250006       0.06777616
Ni       8.99885593       3.69225838       4.29728944        2       1.00000000       0.14445395       0.06511010      -0.18819439
Ni       2.49082524       5.85434289       4.37393873        2       1.00000000      -0.11624067      -0.05625930      -0.10219534
Pt       5.08458868       5.86618401       4.31059938        2       0.00000000       0.03592613      -0.01075851      -0.01995040
Ni       7.71571933       5.83255169       4.29183237        2       1.00000000       0.12579710      -0.03359278      -0.20974012
Ni      10.26210709       5.82516304       4.33493607        2       1.00000000      -0.00231139      -0.02432100      -0.07195504
Pt       3.71544953       8.09822558       4.30283958        2       0.00000000      -0.01336496      -0.03422138       0.00508321
Pt       6.38799723       8.10375533       4.22679868        2       0.00000000      -0.08544185       0.12848367      -0.01066369
Pt       9.00511610       8.05822295       4.25023495        2       0.00000000      -0.02506632      -0.04262045       0.08589088
Ni      11.51849669       8.07754129       4.30513423        2       1.00000000      -0.08942996      -0.06227622      -0.12810037
Pt      -0.06485357      -0.07794587       6.56350303        1       0.00000000      -0.01814754      -0.04328948       0.14674409
Pt       2.56678546      -0.02119023       6.56798085        1       0.00000000       0.03224146       0.01447721       0.23350907
Pt       5.19036088      -0.07184028       6.51303831        1       0.00000000       0.09997475      -0.16439801       0.08751800
Ni       7.66691208      -0.07178439       6.48607816        1       1.00000000       0.00730831      -0.03504407      -0.11352975
Pt       1.30364723       2.30823039       6.51229784        1       0.00000000       0.16863118       0.06567546       0.20290694
Ni       3.83728399       2.22294966       6.40003479        1       1.00000000       0.06105781       0.01580460      -0.31816012
Pt       6.39033820       2.18643061       6.41701662        1       0.00000000      -0.02521622      -0.01045916      -0.23853091
Pt       8.95309515       2.25303245       6.45166525        1       0.00000000       0.03136270       0.10986319      -0.03424715
Ni       2.52834574       4.46502525       6.44612112        1       1.00000000      -0.05057790       0.17516566      -0.26110207
Pt       5.04952528       4.43670756       6.52632721        1       0.00000000      -0.10594317       0.12816833       0.11093457
Ni       7.66850660       4.41178641       6.46093516        1       1.00000000      -0.12695243      -0.00482896      -0.16438284
Ni      10.26917266       4.42865510       6.43675171        1       1.00000000       0.18170462       0.06554302      -0.22146013
Ni       3.75784023       6.60252367       6.47465815        1       1.00000000      -0.19555053       0.00491225      -0.12584703
Ni       6.38942487       6.58368732       6.39975353        1       1.00000000       0.05373158      -0.02658953      -0.29874326
Pt       8.97127836       6.48810493       6.48121297        1       0.00000000       0.01015784      -0.10146543       0.09304186
Ni      11.56532545       6.56442436       6.43106647        1       1.00000000       0.06898434      -0.09839219      -0.23770403
