64
Lattice="10.145574430765736 0.016409303350093468 0.0040690568280059925 5.086998088942511 8.743745627716642 -0.046981623110602166 0.0033223709876675288 -0.04621287084095448 8.657198667083204" Properties=species:S:1:pos:R:3:tags:I:1:initial_magmoms:R:1:forces:R:3 unique_id=8cdd8bedc41a408380945669e20e3771 stress="-0.006868580059132837 2.5298619475156804e-05 1.2609536968799363e-05 2.5298619475156804e-05 -0.0068203637789924915 -6.430980684128906e-06 1.2609536968799363e-05 -6.430980684128906e-06 -0.005841512494810332" energy=-389.6372409630076 pbc="T T T"
Ni       0.03830420      -0.05020719       0.20259937        4       1.00000000       0.07243789      -0.05641541       0.14054968
Ni       2.48003528      -0.00282268       0.20567274        4       1.00000000      -0.02174769      -0.01515412       0.04394263
Pt       5.13335454      -0.00894619       0.21885860        4       0.00000000       0.02581271      -0.03291859      -0.07095762
Ni       7.64285986      -0.03948072       0.20348923        4       1.00000000       0.08827985      -0.09626942       0.13939516
Ni       1.26905038       2.19544502       0.12223447        4       1.00000000      -0.00206338       0.00148544       0.11109146
Pt       3.76984444       2.25638668       0.19514749        4       0.00000000      -0.03132001      -0.01490432      -0.08951564
Ni       6.35074224       2.23823583       0.12194744        4       1.00000000      -0.02291019       0.02193371       0.12263240
Pt       8.88924350       2.24549671       0.12250603        4       0.00000000       0.01486475       0.03694131      -0.19758360
Ni       2.52382342       4.41733145       0.09222710        4       1.00000000       0.02957883       0.03018642       0.06153985
Ni       5.09361762       4.42268395       0.09428473        4       1.00000000      -0.07333458       0.04190230       0.03086064
Ni       7.55064389       4.37228331       0.10216371        4       1.00000000      -0.09595238      -0.02281032       0.07433511
Ni      10.21992975       4.37880393       0.10417702        4       1.00000000       0.12078141      -0.01109979       0.07143479
Ni       3.81958031       6.53330068       0.08531537        4       1.00000000       0.01354550      -0.03546488       0.05720075
Ni       6.30009338       6.54682499       0.08784379        4       1.00000000      -0.03224361      -0.01629335      -0.01621597
Pt       8.85420019       6.49418052       0.18753541        4       0.00000000      -0.01102581      -0.04687427      -0.08141503
Ni      11.47961960       6.52157487       0.09151857        4       1.00000000       0.00799261      -0.04068514       0.03732132
Ni       1.30085491       0.73684239       2.19786956        3       1.00000000      -0.01927620       0.09302613       0.07482987
Ni       3.73753164       0.69642736       2.20074073        3       1.00000000      -0.09736203      -0.02444407       0.00897468
Ni       6.37565291       0.73322293       2.20253445        3       1.00000000       0.10478771       0.00944279       0.07633582
Pt       8.90502660       0.73584610       2.21078169        3       0.00000000       0.06792401      -0.00046933       0.16590237
Ni       2.50010812       2.94076336       2.23440705        3       1.00000000      -0.00742740       0.06831152       0.05650246
Ni       5.08560505       2.96461699       2.15687191        3       1.00000000      -0.01805995       0.10001463       0.01838638
Ni       7.59330547       2.95562885       2.18156778        3       1.00000000       0.01542994       0.03096865       0.04260422
Ni      10.20640593       2.95960793       2.21323072        3       1.00000000       0.08213616       0.00911737       0.02735246
Ni       3.80038198       5.08834159       2.14920793        3       1.00000000      -0.03279023      -0.00109144       0.01071375
Ni       6.32480145       5.10646985       2.09439798        3       1.00000000      -0.01579445       0.02717645       0.01038670
Ni       8.92368284       5.04038377       2.17800165        3       1.00000000       0.08545439      -0.11417220      -0.00114737
Ni      11.43305852       5.09728484       2.16696715        3       1.00000000       0.02826417      -0.02557305       0.04466240
Ni       5.11368676       7.21643267       2.11536606        3       1.00000000      -0.04360075      -0.07064504       0.08102058
Ni       7.58112393       7.31810553       2.15377997        3       1.00000000      -0.10137845       0.04459298      -0.00168743
Ni      10.18411666       7.24423814       2.22776062        3       1.00000000      -0.00096348      -0.08270459       0.04710510
Ni      12.66717719       7.21747616       2.11998896        3       1.00000000       0.02382739      -0.08572962       0.05050891
Ni       0.06522256       1.47286909       4.25891446        2       1.00000000       0.05421559       0.00872663      -0.01855826
Ni       2.48263708       1.46423238       4.22813198        2       1.00000000      -0.00619461       0.04484508      -0.04510957
Pt       5.04602807       1.41153881       4.16946501        2       0.00000000      -0.04311069       0.01408376      -0.13496913
Ni       7.61528393       1.44248181       4.27063622        2       1.00000000      -0.05536218      -0.07244026      -0.03026408
Ni       1.28137061       3.63009550       4.27086674        2       1.00000000       0.01698634       0.00313426      -0.05990829
Ni       3.74785887       3.69500660       4.21829803        2       1.00000000      -0.02207606       0.03302985      -0.14113192
Pt       6.33813975       3.63494559       4.27555085        2       0.00000000       0.00407813      -0.01698225      -0.03333974
Ni       8.95383663       3.66005069       4.21209734        2       1.00000000       0.03962460       0.05279048      -0.14872165
Ni       2.51834110       5.74826115       4.25414775        2       1.00000000      -0.03478903      -0.05542032      -0.15251013
Ni       5.04842179       5.78208771       4.25956036        2       1.00000000      -0.00184903      -0.06582403      -0.14165764
Pt       7.61639804       5.85233871       4.17000722        2       0.00000000      -0.03549536       0.00413638      -0.10222939
Ni      10.22522670       5.78455890       4.21929383        2       1.00000000       0.02023763      -0.05948113      -0.08920834
Pt       3.81533601       7.89815314       4.21514363        2       0.00000000      -0.01739911      -0.02587873       0.05441594
Ni       6.36208712       8.02382903       4.18165751        2       1.00000000      -0.04292509       0.07196257      -0.08613735
Ni       8.88458004       7.99045841       4.17665899        2       1.00000000      -0.03329941      -0.00794498      -0.07570061
Ni      11.41940143       7.92097016       4.18777518        2       1.00000000       0.00795525      -0.06423211      -0.06728081
Pt       0.01576436      -0.07462106       6.46156891        1       0.00000000      -0.07066224       0.02244035       0.15655277
Pt       2.52108216      -0.02437355       6.39687201        1       0.00000000       0.08585930       0.02018167       0.03222658
Pt       5.09187186      -0.03726854       6.34101478        1       0.00000000      -0.07449309      -0.01253531       0.07340800
Pt       7.59986158      -0.06546496       6.46354758        1       0.00000000       0.03906229       0.02565250       0.17976708
Ni       1.26872769       2.22493008       6.36138064        1       1.00000000       0.01567139       0.03657336      -0.06476156
Pt       3.78345497       2.30905232       6.32311106        1       0.00000000      -0.03137294       0.08718922       0.04734914
Ni       6.34415750       2.21688729       6.40810412        1       1.00000000      -0.02689840       0.03284282       0.02109544
Pt       8.89255095       2.27532657       6.26814034        1       0.00000000      -0.00700733       0.05035698      -0.02580965
Ni       2.51270901       4.40396800       6.35286763        1       1.00000000      -0.00839671       0.06302880      -0.07691238
Ni       5.08365625       4.41269597       6.39375200        1       1.00000000      -0.03022389       0.09269574      -0.00776807
Ni       7.56016317       4.35712904       6.40402852        1       1.00000000      -0.10254418       0.02791444       0.02186638
Ni      10.24023898       4.35042389       6.35548746        1       1.00000000       0.13935344       0.00470289      -0.08517135
Ni       3.81238558       6.43171494       6.37495297        1       1.00000000      -0.01941712      -0.05616206      -0.01702545
Ni       6.31657015       6.46800407       6.37093844        1       1.00000000      -0.00269563       0.01681709      -0.10973797
Pt       8.92509404       6.41332781       6.32541761        1       0.00000000       0.07066312      -0.02160794       0.09612731
Ni      11.47354918       6.46320284       6.34455549        1       1.00000000       0.01863828       0.02402349      -0.11596211
