64
Lattice="10.39037633640778 0.01873756553310029 0.07536109403595562 5.211415375960633 9.077186973634092 0.04937521201983156 0.0 0.0 21.781144531520688" Properties=species:S:1:pos:R:3:tags:I:1:initial_magmoms:R:1:forces:R:3 unique_id=41f4e459f168420197632803d1e91f81 stress="0.006033677901951316 -7.08053334631476e-05 9.989529957084875e-05 -7.08053334631476e-05 0.006533177566913253 0.00020710199247443131 9.989529957084875e-05 0.00020710199247443131 -0.0003797499700823499" energy=-382.1269830287249 pbc="T T T"
Pt      -0.02732477       0.10649735       0.00000000        0       0.00000000      -0.22117706      -0.00974329      -0.19388733
Ni       2.62547035      -0.00119779       0.05496852        1       1.00000000       0.13652238      -0.09079226       0.30892788
Ni       5.23181480      -0.01853568       0.16027090        2       1.00000000       0.16885081       0.00522237       0.08221959
Ni       7.75946328       0.04938387       0.13866187        1       1.00000000      -0.13728420       0.10602856       0.54690984
Ni       1.28253080       2.27681602       0.03790052        0       1.00000000       0.00571732       0.10810052       0.13699488
Pt       3.92615983       2.20655905       0.12312413        1       0.00000000       0.20705550       0.06194245      -0.67336388
Ni       6.54746016       2.24030272       0.17925127        2       1.00000000       0.01824038      -0.19197924       0.25325132
Ni       9.08353906       2.30229998       0.12401945        1       1.00000000      -0.11300531       0.05805298       0.41987252
Pt       2.49335454       4.54424499       0.13397312        1       0.00000000      -0.08469165       0.10304182      -0.73812051
Pt       5.29383694       4.48532061       0.18328223        2       0.00000000       0.07709978      -0.12544167      -0.49745983
Ni       7.86057747       4.53094082       0.19305651        2       1.00000000       0.16706536       0.05551551       0.26838018
Ni      10.35996675       4.56297596       0.13631589        1       1.00000000      -0.15737011       0.17408307       0.39050606
Pt       3.82548128       6.87082175       0.15200235        2       0.00000000      -0.16671598       0.04983610      -0.88131959
Pt       6.60019553       6.79996289       0.16081282        2       0.00000000      -0.03797172      -0.09941725      -0.77003622
Ni       9.15384643       6.80044457       0.12564876        1       1.00000000       0.12870410      -0.10010460       0.44369988
Ni      11.66762411       6.83980341       0.21742356        2       1.00000000       0.02215815      -0.04747120      -0.04157005
Pt       1.30188650       0.77904628       2.22332147        3       0.00000000       0.06329115       0.05436355       0.03586072
Pt       4.03352711       0.75259622       2.30171759        4       0.00000000       0.21909386      -0.09851536       0.21824883
Ni       6.55731656       0.76720793       2.30099407        4       1.00000000       0.18725915      -0.04033746       0.18303805
Ni       9.03825945       0.78224007       2.30134064        4       1.00000000      -0.18100156       0.06146285       0.03110563
Pt       2.62831141       3.04860027       2.31600900        4       0.00000000      -0.01073710      -0.01197132       0.12885612
Ni       5.25470700       3.01970110       2.34528109        4       1.00000000       0.03287676      -0.06129436       0.50529336
Pt       7.75025316       3.02880414       2.32064617        4       0.00000000      -0.02503257      -0.05717323       0.14599640
Pt      10.34793279       3.10854650       2.25618785        4       0.00000000      -0.06060765      -0.01847153      -0.03619792
Pt       3.92340197       5.27763696       2.33198353        4       0.00000000       0.06349937      -0.02061421       0.11619720
Ni       6.56396158       5.26230097       2.32528709        4       1.00000000       0.15443497      -0.09250030       0.31698787
Ni       9.11716635       5.29969855       2.32185522        4       1.00000000      -0.01209235      -0.04516359       0.13308659
Ni      11.67418708       5.33763720       2.33874432        4       1.00000000      -0.04242188      -0.05482774       0.13944009
Pt       5.17874804       7.59103676       2.31621526        4       0.00000000      -0.03225885       0.06739256       0.11275484
Pt       7.88717427       7.48622654       2.33585630        4       0.00000000       0.15354012      -0.02971947       0.18091217
Pt      10.51704849       7.52290135       2.30267817        4       0.00000000       0.01884430      -0.03655949       0.23181651
Ni      12.98495209       7.63333517       2.35695420        5       1.00000000       0.05123924       0.21328842       0.11526468
Pt      -0.06904214       1.58024005       4.54178823        7       0.00000000      -0.27850474       0.20722886      -0.13825224
Pt       2.65084051       1.53711415       4.50215738        7       0.00000000       0.00762488       0.04962326       0.01169875
Ni       5.29359370       1.54720813       4.47964519        7       1.00000000       0.17428154       0.04806456      -0.32664785
Ni       7.77734215       1.55138065       4.50281182        7       1.00000000      -0.23269312       0.14257959      -0.23739284
Pt       1.23942626       3.83002217       4.48155225        7       0.00000000      -0.21551211       0.13686924      -0.08310651
Ni       3.97641814       3.76284411       4.48230861        7       1.00000000       0.12446381      -0.08846509      -0.33727463
Ni       6.55967692       3.75387505       4.48307667        7       1.00000000       0.04627359      -0.13632777      -0.30032356
Ni       9.08482135       3.83190845       4.53418411        7       1.00000000      -0.26081476       0.06979677      -0.23709759
Pt       2.55531876       6.09665116       4.42221013        6       0.00000000      -0.20034796       0.14310461      -0.23243820
Pt       5.30790592       5.98143086       4.45390665        7       0.00000000       0.14709469      -0.09562259      -0.11100183
Ni       7.88876040       6.00302997       4.51506018        7       1.00000000       0.15835839      -0.22519945      -0.27698263
Ni      10.38249032       6.04954529       4.55410252        8       1.00000000      -0.20131680      -0.10373609      -0.11079323
Pt       3.83202283       8.40717190       4.47880088        7       0.00000000      -0.19889602       0.12288103      -0.13905466
Pt       6.54564272       8.34163741       4.54801151        7       0.00000000      -0.15610454      -0.01799086      -0.12319294
Pt       9.20899926       8.26424413       4.58492910        8       0.00000000       0.06254600      -0.10415011       0.05122785
Ni      11.72787837       8.38228716       4.54453131        7       1.00000000      -0.12157926       0.20605477      -0.22056236
Ni       0.03737551       0.06449511       6.60661174        9       1.00000000      -0.03171703      -0.00857882       0.11359610
Ni       2.61866415       0.02002062       6.70437374       10       1.00000000      -0.07255043       0.07184494      -0.21069473
Pt       5.22652451      -0.00325266       6.73729992       10       0.00000000       0.08326066       0.11216818       0.00942284
Ni       7.85597937       0.04938592       6.73134717       10       1.00000000       0.06820024      -0.02179703      -0.31019166
Ni       1.29042211       2.25178369       6.69978751       10       1.00000000      -0.05184009      -0.01985515      -0.31842986
Pt       3.91155840       2.24255050       6.63779097        9       0.00000000       0.14052178       0.04574800       0.77210702
Pt       6.63246981       2.23713364       6.68708305       10       0.00000000       0.02577451       0.01737723      -0.17989469
Ni       9.16872862       2.27903942       6.76287479       11       1.00000000       0.05790298      -0.00571453      -0.30819080
Pt       2.58107474       4.50941436       6.64119601        9       0.00000000       0.19561308      -0.07663700       0.63162901
Pt       5.27189649       4.52289644       6.64514447        9       0.00000000       0.06789917      -0.00339559       0.57681164
Pt       7.96061626       4.55215963       6.70320445       10       0.00000000      -0.10375301      -0.04571549      -0.28053818
Ni      10.42068196       4.54024466       6.75414896       11       1.00000000       0.06347472      -0.09386313      -0.35845798
Pt       3.94332028       6.89622125       6.66554105       10       0.00000000       0.11540062      -0.04387897       0.65410865
Pt       6.63146969       6.86765278       6.68530496       10       0.00000000      -0.00736617      -0.12030696       0.73267053
Ni       9.14707409       6.81486416       6.74908913       10       1.00000000       0.03934073      -0.02473017      -0.22335761
Pt      11.66265053       6.81620022       6.78114453       11       0.00000000      -0.03816005      -0.02360946      -0.10306171
