64
Lattice="10.16318790938126 0.02438291837095138 -0.022685056149505202 5.102710181418331 8.799977170130859 -0.02003049593415547 0.0 0.0 21.387658172395327" Properties=species:S:1:pos:R:3:tags:I:1:initial_magmoms:R:1:forces:R:3 unique_id=91507018770e420e9d344bf468a43574 energy=-369.6493908276182 stress="0.005312811416741564 8.244798831861421e-05 -0.00010531554238583922 8.244798831861421e-05 0.004825201409575372 -8.127412070034342e-05 -0.00010531554238583922 -8.127412070034342e-05 -0.001019708299668241" pbc="T T T"
Ni       0.02098036      -0.01740796       0.08858447        1       1.00000000       0.03020127       0.08108728      -0.19681686
Ni       2.48908249       0.00500529       0.11819487        1       1.00000000       0.00525830      -0.01320253      -0.06905985
Pt       5.13549776      -0.00060787       0.12264687        1       0.00000000      -0.07937771      -0.02305260      -0.63932454
Ni       7.64733487      -0.01749897       0.08466904        1       1.00000000       0.06712329      -0.09061405      -0.12973905
Ni       1.26998521       2.21379196       0.04748793        0       1.00000000      -0.04355644       0.01787792       0.35057305
Pt       3.77643488       2.26973130       0.11755323        1       0.00000000      -0.03876773       0.01719942      -0.52656035
Ni       6.36294684       2.24980183       0.03637024        0       1.00000000      -0.06160258       0.00546531       0.20123993
Pt       8.90253700       2.26623183       0.04146554        0       0.00000000       0.08241284       0.06094922      -0.59800093
Ni       2.52181886       4.44067188       0.03448469        0       1.00000000       0.05411774       0.02001504       0.42213476
Ni       5.10371817       4.43994873       0.11539383        1       1.00000000      -0.13682105       0.08692101      -0.14481145
Ni       7.58245421       4.40678166       0.02447673        0       1.00000000      -0.01638573       0.03080500       0.16633065
Ni      10.22526287       4.41464857       0.01679693        0       1.00000000       0.06578009       0.00338078       0.34874124
Ni       3.80586712       6.57649764       0.00406993        0       1.00000000      -0.06286454      -0.06963189       0.28761344
Ni       6.33927737       6.58762771       0.00000000        0       1.00000000       0.03742582      -0.04362941       0.11359934
Pt       8.88347506       6.54790065       0.10592526        1       0.00000000       0.01570608       0.01279064      -0.60469261
Ni      11.49710367       6.57698116       0.01463973        0       1.00000000      -0.02341823       0.01812148       0.35282138
Ni       1.30182289       0.76870935       2.12787148        3       1.00000000      -0.02770911       0.16668989       0.15091557
Ni       3.75352454       0.71703138       2.13836126        3       1.00000000      -0.22398437      -0.09010194       0.05777419
Ni       6.36666480       0.75050523       2.12714778        3       1.00000000       0.09486223       0.00848732       0.03214341
Pt       8.87730415       0.76013317       2.17709023        4       0.00000000       0.11352248       0.03173169       0.06694971
Ni       2.50247608       2.96368730       2.17193018        4       1.00000000      -0.04612986       0.07853131       0.18130850
Ni       5.09166468       2.97453410       2.09813077        3       1.00000000      -0.06251908       0.05594977      -0.00425387
Ni       7.60502464       2.98291549       2.10443112        3       1.00000000       0.03938620      -0.01172821       0.09318349
Ni      10.21419413       2.99342058       2.13380855        3       1.00000000       0.12387582       0.01476876       0.17845659
Ni       3.77996125       5.10365332       2.10801141        3       1.00000000      -0.17736373      -0.06466007       0.14384896
Ni       6.37089050       5.11359935       2.04480812        2       1.00000000       0.08790956      -0.00079351      -0.05028994
Ni       8.93262557       5.09516568       2.11894832        3       1.00000000       0.21646930      -0.18384928       0.00392731
Ni      11.44659533       5.14855794       2.09435962        3       1.00000000       0.01520367      -0.00106940       0.16287348
Pt       5.11005357       7.26762323       2.10669942        3       0.00000000      -0.06247821      -0.11409930       0.01720901
Ni       7.64503187       7.37581569       2.11126377        3       1.00000000      -0.00524453       0.17698355       0.05302503
Ni      10.20458684       7.31266227       2.17117191        4       1.00000000       0.06306974      -0.09774224       0.23996193
Ni      12.67495463       7.30463303       2.09132933        3       1.00000000      -0.04595578      -0.15880955       0.14276789
Ni       0.04068726       1.48236245       4.21428537        6       1.00000000       0.17459076       0.08981267      -0.11180511
Ni       2.47311462       1.48422033       4.17187156        6       1.00000000      -0.06544784       0.03109153      -0.22261221
Pt       5.05916393       1.44019360       4.10703780        5       0.00000000      -0.08488464      -0.05392809       0.10224588
Ni       7.63018460       1.45453506       4.20858410        6       1.00000000      -0.06952614      -0.08388499      -0.09793367
Ni       1.27269321       3.67130614       4.23265004        6       1.00000000       0.06152127       0.02203809      -0.14517065
Ni       3.74326383       3.72472800       4.17246093        6       1.00000000      -0.10664496       0.11082111      -0.22343957
Pt       6.36958258       3.66521541       4.17595822        6       0.00000000      -0.00938661      -0.02260394       0.06390010
Ni       8.96253838       3.70064013       4.15974414        6       1.00000000       0.17035186       0.07346712      -0.24938377
Ni       2.53661753       5.84954828       4.22802926        6       1.00000000      -0.00143625      -0.04574445      -0.17979019
Ni       5.02709987       5.89327510       4.22936307        6       1.00000000      -0.11387976      -0.02768246      -0.05914869
Pt       7.62522584       5.90577242       4.12384960        5       0.00000000      -0.01114168       0.06242971       0.09545279
Ni      10.23988354       5.85485355       4.17313578        6       1.00000000       0.12999355      -0.05303714      -0.21070563
Ni       3.80672692       8.01913623       4.21335244        6       1.00000000      -0.07848350      -0.13817200      -0.08190100
Ni       6.35083073       8.09111325       4.17719301        6       1.00000000       0.00756531       0.12517868      -0.21114300
Ni       8.89977897       8.06713752       4.14206685        5       1.00000000      -0.01666441       0.04170801      -0.30661679
Ni      11.47074272       8.00354571       4.14213612        5       1.00000000       0.03007424      -0.16167349      -0.19437968
Pt      -0.01557696      -0.05136585       6.34505086        8       0.00000000      -0.05922156       0.15458072       0.05054899
Pt       2.50754695      -0.00706407       6.33804653        8       0.00000000       0.13757931      -0.02278265       0.12291618
Pt       5.09191106      -0.02153143       6.29034456        8       0.00000000      -0.05829066      -0.16036602       0.74477667
Pt       7.61307664      -0.04103860       6.33099454        8       0.00000000      -0.00743237       0.07574240       0.15064783
Ni       1.24607036       2.25338066       6.32753697        8       1.00000000      -0.01354772       0.05721721      -0.24506243
Pt       3.74392309       2.28490928       6.27805021        8       0.00000000      -0.10292568       0.14587118       0.56065741
Ni       6.35576828       2.22943851       6.34978436        8       1.00000000      -0.03722272       0.02131641      -0.01787501
Pt       8.89998427       2.30431428       6.22761672        7       0.00000000       0.02750420      -0.05122987       0.58940799
Ni       2.48131072       4.44403697       6.32449136        8       1.00000000       0.04710286      -0.00678386      -0.36981414
Pt       5.08177406       4.48299149       6.38765817        9       0.00000000      -0.20419549      -0.02524704       0.09987075
Ni       7.61213671       4.40954266       6.35281656        9       1.00000000       0.00256172      -0.00446534      -0.08996962
Ni      10.22909163       4.40913008       6.30929141        8       1.00000000       0.09561318      -0.04589270      -0.30379903
Ni       3.78198934       6.56462118       6.32049521        8       1.00000000      -0.10649114      -0.07449517      -0.25584812
Ni       6.34868238       6.58825788       6.33439458        8       1.00000000       0.09017881       0.01463691      -0.13596350
Pt       8.93816008       6.49856535       6.28948261        8       0.00000000       0.20932671       0.01175305       0.62866806
Ni      11.48272505       6.53944042       6.30195783        8       1.00000000      -0.03528641       0.01555297      -0.30058024
