64
Lattice="10.328831735139115 -0.0004668362896962551 0.011844500357878459 5.164011575483272 8.895853597750762 -0.020390891122976817 0.009670994045005002 -0.024808267531872916 8.813198510605163" Properties=species:S:1:pos:R:3:tags:I:1:initial_magmoms:R:1:forces:R:3 unique_id=b929f9b5d74e492aa19a15a313193069 stress="0.00025397539811716774 4.656967355409031e-06 -1.7203229647851555e-05 4.656967355409031e-06 0.0002600388976001025 -1.738565443241176e-06 -1.7203229647851555e-05 -1.738565443241176e-06 0.00024813129874978745" energy=-398.0482020526487 pbc="T T T"
Ni       0.01290815      -0.00807708       0.18548385        4       1.00000000       0.00635079       0.00769697       0.32002579
Ni       2.58310249       0.00284132       0.21523972        4       1.00000000       0.03973275       0.00039734       0.39991015
Ni       5.15991534      -0.01773751       0.17128864        4       1.00000000      -0.04905406       0.11011015       0.25286549
Ni       7.74217863      -0.06101326       0.19526751        4       1.00000000      -0.02755308      -0.13477679       0.39389241
Ni       1.30270026       2.22979684       0.10206165        4       1.00000000       0.03668535       0.04369078       0.22730412
Pt       3.81014721       2.23467443       0.19238933        4       0.00000000       0.00183340       0.04787558       0.15272599
Pt       6.44169815       2.18037378       0.11849733        4       0.00000000       0.04825123      -0.02054007      -0.03267661
Pt       9.12648259       2.22510195       0.12416602        4       0.00000000       0.14344303      -0.04142138       0.08531851
Ni       2.57933277       4.47431879       0.06545373        4       1.00000000       0.06414374       0.06861585       0.01612600
Ni       5.12976344       4.46865890       0.18738128        4       1.00000000      -0.02062464       0.00715643       0.37789916
Pt       7.78778798       4.49635249       0.10289879        4       0.00000000       0.05582839       0.05906545      -0.08519230
Ni      10.37537721       4.47457310       0.07255858        4       1.00000000       0.13408516       0.08263362       0.11652576
Ni       3.83784799       6.66626128       0.09765101        4       1.00000000      -0.09310412      -0.04381306       0.21150869
Pt       6.42401362       6.72269705       0.18677906        4       0.00000000      -0.06680867       0.00729348       0.10950819
Ni       9.06361544       6.68859005       0.06757896        4       1.00000000      -0.01094192       0.03836722       0.02135809
Ni      11.64472295       6.66520962       0.05968784        4       1.00000000       0.13462013      -0.04010343      -0.00099749
Ni       1.30822992       0.75826995       2.16559654        3       1.00000000      -0.02666094       0.13122835      -0.12540869
Ni       3.86736723       0.74956649       2.21717309        3       1.00000000       0.06071800       0.05416551       0.06246222
Ni       6.44440388       0.76416956       2.23617660        3       1.00000000      -0.05712895       0.13522079       0.12491237
Pt       9.04300832       0.73646810       2.24845772        3       0.00000000      -0.02011699       0.20923066      -0.02738014
Ni       2.57736417       2.96624466       2.22508168        3       1.00000000       0.00001477       0.11210462      -0.03706722
Ni       5.15380494       2.97047701       2.24973900        3       1.00000000      -0.10976224      -0.00998749       0.07557586
Ni       7.75164206       2.97610543       2.24969591        3       1.00000000       0.13206702       0.00465429      -0.09593295
Ni      10.35305805       2.96165210       2.25895442        3       1.00000000       0.05173153      -0.00058886       0.12550819
Ni       3.88508258       5.16849193       2.17415216        3       1.00000000      -0.05702875      -0.09841086      -0.09886420
Ni       6.45796535       5.16919172       2.21754052        3       1.00000000       0.09122522      -0.02846316      -0.05624410
Ni       9.01860722       5.16308069       2.23440788        3       1.00000000      -0.00880512      -0.08787315       0.11331456
Pt      11.66749304       5.12838376       2.17912725        3       0.00000000       0.04576663      -0.03304935       0.04399307
Ni       5.13727334       7.38893347       2.18238498        3       1.00000000      -0.18742037      -0.08558432      -0.07668722
Ni       7.74995334       7.40333777       2.19324465        3       1.00000000       0.04138984      -0.11462343      -0.02491004
Pt      10.31484679       7.41250316       2.10618080        3       0.00000000       0.02417400      -0.15224047      -0.04191399
Ni      12.93600494       7.37722562       2.16182356        3       1.00000000       0.04437165      -0.16452744      -0.01912722
Ni       0.00334944       1.54073014       4.34536196        2       1.00000000      -0.00264485       0.14805096      -0.12735604
Pt       2.55242993       1.57272082       4.27106247        2       0.00000000       0.02657867      -0.00944461       0.01071550
Ni       5.18351803       1.49736509       4.34384869        2       1.00000000      -0.08071024       0.01848870      -0.15147932
Ni       7.75394323       1.49404085       4.35881871        2       1.00000000       0.03041020      -0.06224152      -0.11805319
Ni       1.29211214       3.69217130       4.39344398        2       1.00000000      -0.02484248       0.00458176      -0.04004336
Ni       3.84580755       3.71464354       4.32643255        2       1.00000000      -0.08886677      -0.01479573      -0.19299306
Pt       6.50813394       3.63920688       4.31507900        2       0.00000000      -0.03061801      -0.02245340       0.00136151
Ni       9.05449588       3.68434370       4.32670929        2       1.00000000       0.03372440      -0.09803616      -0.36858522
Ni       2.57542521       5.86125984       4.39370142        2       1.00000000      -0.05537909      -0.12305042      -0.04579078
Pt       5.11918574       5.85320696       4.26522107        2       0.00000000       0.03871785      -0.06927326      -0.01752370
Ni       7.77451098       5.86826749       4.34242456        2       1.00000000       0.00272166      -0.08239618      -0.23220131
Pt      10.33128227       5.81396576       4.43367831        2       0.00000000      -0.01814694       0.01138129      -0.06884786
Pt       3.86226079       8.13696646       4.33003836        2       0.00000000      -0.08166031      -0.08005815       0.20109506
Pt       6.45312274       8.15481511       4.23235404        2       0.00000000      -0.07001623      -0.01127113      -0.04128068
Pt       9.03120719       8.13548060       4.32028863        2       0.00000000      -0.07450964       0.03908941       0.06952301
Pt      11.63597012       8.15504429       4.29733187        2       0.00000000       0.04122598       0.01257131       0.01548689
Pt       0.00570883       0.00437925       6.59379133        1       0.00000000       0.03317525       0.06184049       0.14301000
Pt       2.58648050      -0.00851842       6.62686722        1       0.00000000      -0.02964730       0.05201452       0.22421945
Pt       5.18107528      -0.05998995       6.60435506        1       0.00000000       0.02553142      -0.10772615       0.07165887
Pt       7.74026189      -0.04621655       6.62085683        1       0.00000000      -0.05087249      -0.02730629       0.20216922
Ni       1.28263442       2.27722355       6.51791248        1       1.00000000      -0.04279040       0.21139016      -0.18356629
Pt       3.84821623       2.25850054       6.47448418        1       0.00000000      -0.10165301       0.07475991      -0.23325080
Ni       6.47689863       2.21612302       6.46006742        1       1.00000000      -0.00921740      -0.00654366      -0.23653383
Pt       9.05059987       2.30974042       6.42046271        1       0.00000000      -0.01867982       0.11307050      -0.34222445
Ni       2.53169550       4.46331215       6.50683189        1       1.00000000      -0.12966683       0.06470936      -0.22827115
Pt       5.14496403       4.43329667       6.57629454        1       0.00000000      -0.03013967       0.05817985       0.17174861
Ni       7.78955161       4.43941092       6.44828841        1       1.00000000       0.08902548       0.08293846      -0.29899611
Ni      10.36372464       4.44430231       6.53855098        1       1.00000000       0.10575565       0.02261566      -0.05412561
Ni       3.82685748       6.61629918       6.53261006        1       1.00000000      -0.11213682      -0.08833275      -0.10780239
Pt       6.50992813       6.60379344       6.48251860        1       0.00000000       0.06931154       0.03309024      -0.27853305
Ni       9.07696784       6.58695350       6.53935155        1       1.00000000       0.08644259      -0.16644599      -0.12912128
Ni      11.63637018       6.58773617       6.54692909        1       1.00000000       0.04815485      -0.10290100      -0.12274112
