64
Lattice="10.181084567662207 0.016856805864121378 -0.022888483531041143 5.105140705936095 8.788654796725945 -0.03866028355523736 0.0 0.0 21.418998915056967" Properties=species:S:1:pos:R:3:tags:I:1:initial_magmoms:R:1:forces:R:3 unique_id=f8c1ee95146f42ab8ad8c8cb7a30dfbb stress="0.002337293553573058 -5.2325505751539374e-05 -0.00011236743032389282 -5.2325505751539374e-05 0.0017820281110434814 5.682332138432006e-05 -0.00011236743032389282 5.682332138432006e-05 -0.005260595766612244" energy=-370.3020011528579 pbc="T T T"
Ni       0.02666985      -0.04732173       0.13828570        1       1.00000000       0.07329978      -0.06347839      -0.31459414
Ni       2.49717161       0.00753556       0.09730897        1       1.00000000       0.02846801       0.13333405      -0.35361271
Pt       5.10977249      -0.05291282       0.14772753        1       0.00000000      -0.06664257      -0.03111034      -0.79782485
Ni       7.64567695      -0.03809891       0.09520717        1       1.00000000      -0.05847784      -0.09892699      -0.27730770
Ni       1.26664581       2.21805928       0.06617796        1       1.00000000      -0.04443377       0.05349379       0.22780984
Pt       3.78374726       2.26805686       0.12956475        1       0.00000000       0.00180503      -0.02791724      -0.71981361
Ni       6.36732875       2.24693535       0.05444628        1       1.00000000      -0.02952506      -0.00414724       0.16391456
Pt       8.91028242       2.26305271       0.08014577        1       0.00000000       0.03467685       0.16766156      -0.89583133
Ni       2.52280078       4.43597844       0.04467257        0       1.00000000       0.02879833       0.01012602       0.32169667
Ni       5.11473095       4.44239245       0.03245387        0       1.00000000      -0.09927338       0.01328036       0.23893718
Ni       7.61030947       4.43856450       0.03699607        0       1.00000000       0.06272717       0.01474030       0.24222101
Ni      10.21715526       4.43856583       0.03411808        0       1.00000000      -0.02966150      -0.02679865       0.32428457
Ni       3.83132148       6.56857967       0.03842295        0       1.00000000      -0.01580510       0.03000203       0.30738116
Ni       6.33690059       6.56864572       0.00000000        0       1.00000000      -0.05300013       0.01124345       0.18391577
Ni       8.92474626       6.53291492       0.10765508        1       1.00000000       0.14267138      -0.06057865      -0.44745883
Ni      11.48543365       6.55303234       0.12618449        1       1.00000000      -0.02625849       0.03015945      -0.22042349
Ni       1.29418666       0.76942387       2.10208134        3       1.00000000      -0.03077369       0.14786812       0.08737525
Ni       3.77158777       0.74131022       2.13846793        3       1.00000000      -0.13235494       0.00234598       0.18623950
Ni       6.37462761       0.73561310       2.12529605        3       1.00000000       0.02366236       0.04695132       0.11004024
Pt       8.88199252       0.67698783       2.13004677        3       0.00000000       0.03980149      -0.13676796       0.14389225
Ni       2.50884648       2.96175097       2.17460597        4       1.00000000      -0.03664793       0.06476060       0.11361266
Ni       5.10285168       2.98153860       2.09420755        3       1.00000000       0.04556621       0.04350407       0.03628789
Ni       7.61308228       2.97337790       2.12080337        3       1.00000000      -0.02142841       0.01537637       0.10317042
Ni      10.22514481       2.99936606       2.11193741        3       1.00000000       0.05837808       0.03803805       0.12146953
Ni       3.83058362       5.10944095       2.06057852        3       1.00000000      -0.04767122      -0.03744255       0.00859612
Ni       6.33425757       5.11204798       2.04692473        2       1.00000000       0.00095572       0.01753126       0.03250435
Ni       8.95032020       5.09008712       2.07612045        3       1.00000000       0.02315924      -0.05633932       0.08687416
Ni      11.44454894       5.11433763       2.07016704        3       1.00000000      -0.02080715      -0.06279499       0.10059380
Ni       5.07653043       7.25717339       2.09771121        3       1.00000000      -0.07683894      -0.09512636       0.11411203
Pt       7.62503208       7.33812589       2.05210443        3       0.00000000      -0.08421811      -0.03326257      -0.02318390
Ni      10.22298053       7.27326691       2.15002534        4       1.00000000       0.01988613      -0.07461444       0.26150211
Ni      12.72000005       7.28620459       2.05970554        3       1.00000000       0.01162771      -0.06006090       0.07092766
Pt       0.06045296       1.48243530       4.20995040        6       0.00000000       0.08930065      -0.02454052       0.00553131
Ni       2.53794684       1.47459188       4.18266361        6       1.00000000       0.04377247      -0.03963231      -0.24792340
Pt       5.06653521       1.43177041       4.11530026        5       0.00000000       0.09819554      -0.04198195      -0.13568589
Ni       7.62387336       1.44851183       4.20362342        6       1.00000000      -0.03379789      -0.07231932      -0.20757917
Ni       1.28017696       3.66547398       4.23709433        6       1.00000000       0.05108341       0.04943812      -0.08520443
Ni       3.79041073       3.67685538       4.17163965        6       1.00000000      -0.00241857       0.03112108      -0.24489008
Pt       6.34719934       3.66121675       4.22270829        6       0.00000000      -0.01117131      -0.03395624      -0.02670972
Ni       8.95243322       3.70546253       4.16005937        6       1.00000000       0.10530784       0.05747236      -0.21738987
Pt       2.57094962       5.82318066       4.15382267        6       0.00000000       0.03188828       0.00605193       0.05013770
Ni       5.07860429       5.87656700       4.21818017        6       1.00000000       0.00471095       0.02906885      -0.15838896
Pt       7.63951103       5.86483953       4.19020166        6       0.00000000       0.01537867       0.06658311       0.03902443
Ni      10.19665883       5.83373039       4.16542351        6       1.00000000       0.05211639       0.02429224      -0.15160447
Ni       3.83477816       8.00678189       4.19784575        6       1.00000000       0.02942557      -0.00426150      -0.07051963
Ni       6.34470086       8.03413338       4.17446824        6       1.00000000      -0.01865183       0.00805988      -0.15020615
Ni       8.91896656       8.03848084       4.16387913        6       1.00000000       0.00640263      -0.01644703      -0.22026613
Ni      11.46842300       8.02444044       4.12649234        5       1.00000000       0.04701616      -0.04900232      -0.22423307
Pt      -0.00692650      -0.09244076       6.41899892        8       0.00000000      -0.18277245       0.06290126       0.16490348
Pt       2.50574259      -0.00190691       6.35185187        8       0.00000000       0.18790896       0.04751199       0.18034684
Pt       5.08786765       0.00310451       6.30037961        7       0.00000000      -0.13972682      -0.27844433       0.89177639
Pt       7.63608585      -0.00370995       6.34593691        7       0.00000000       0.10499271       0.04255425       0.22324092
Ni       1.26377967       2.24513176       6.36241057        8       1.00000000       0.04918469       0.04031660      -0.04202356
Pt       3.79714124       2.31517670       6.28950157        7       0.00000000      -0.11096498      -0.02855163       0.64844381
Ni       6.34730369       2.24854827       6.36296766        8       1.00000000       0.02257676       0.04821314       0.02831434
Pt       8.88350257       2.31023537       6.26846550        7       0.00000000      -0.16823916      -0.10119764       0.90362618
Ni       2.54909134       4.37624507       6.34935731        7       1.00000000       0.05080191      -0.04251059      -0.19173543
Ni       5.09454527       4.44375214       6.35764366        8       1.00000000      -0.07909223      -0.00871339      -0.22544582
Ni       7.56287286       4.39072920       6.37079997        8       1.00000000      -0.04402527      -0.06008994      -0.03412885
Ni      10.21894472       4.35808221       6.31698766        7       1.00000000       0.05902352      -0.00367917      -0.20585268
Ni       3.86197699       6.49671832       6.34472138        7       1.00000000       0.00486689      -0.01869794      -0.20639611
Ni       6.32102523       6.51369028       6.34051632        7       1.00000000      -0.01949858       0.04359599      -0.10914602
Pt       8.87685110       6.47012164       6.40998273        8       0.00000000       0.21262709       0.14465924       0.36499140
Pt      11.50275651       6.48508569       6.39389119        8       0.00000000      -0.17788724       0.15113560       0.11768448
