64
Lattice="10.279785063769507 -0.030136122267905397 0.0629035227342179 5.113793884429193 8.834782355112017 0.04173241973609419 0.0 0.0 21.523087911731817" Properties=species:S:1:pos:R:3:tags:I:1:initial_magmoms:R:1:forces:R:3 unique_id=1e47eeb435e0448faa4afab90ccb2235 stress="0.005705309839084042 2.375909094717466e-05 0.00029599956723068237 2.375909094717466e-05 0.004959597608833591 0.00025290515956402697 0.00029599956723068237 0.00025290515956402697 -0.001007151133049099" energy=-373.5486653961152 pbc="T T T"
Ni       0.07057390      -0.03131748       0.08471331        1       1.00000000       0.13354521      -0.11163572      -0.09360007
Ni       2.51910678      -0.03169989       0.13259071        1       1.00000000      -0.03033256      -0.05510805      -0.05078733
Pt       5.08068219      -0.03974786       0.08055477        1       0.00000000      -0.09500257       0.19172379      -0.98201711
Pt       7.75096432      -0.12037948       0.12802519        1       0.00000000      -0.07080807       0.02988704      -0.94252182
Ni       1.28835713       2.21733901       0.02759990        0       1.00000000      -0.01509362       0.07730971       0.39235219
Pt       3.77379702       2.27037316       0.12444200        1       0.00000000       0.02981128       0.04467448      -0.43402691
Pt       6.42637657       2.29669241       0.06691992        1       0.00000000       0.02152905      -0.03073304      -0.08819317
Pt       9.07631073       2.27680265       0.11168111        1       0.00000000      -0.04060048       0.13315369      -0.62554347
Ni       2.55400266       4.45221191       0.00000000        0       1.00000000       0.07035780       0.02630868       0.33802101
Ni       5.13163344       4.48141654       0.05265746        1       1.00000000      -0.01277547       0.14765406       0.45888753
Ni       7.70237061       4.47570683       0.07416672        1       1.00000000       0.03627679       0.15454541       0.41832452
Ni      10.29469368       4.43488752       0.05665394        1       1.00000000      -0.00279363       0.06781637       0.36781289
Ni       3.86996956       6.57479700       0.04898554        0       1.00000000       0.11325860      -0.05384411       0.45128183
Ni       6.40882388       6.61075902       0.14567413        1       1.00000000       0.00448341      -0.00313429       0.13661816
Ni       8.93962560       6.56074325       0.13947445        1       1.00000000      -0.22098786      -0.07035604      -0.12582874
Ni      11.56133475       6.53838069       0.05785880        1       1.00000000       0.03287685       0.03330759       0.16794474
Ni       1.32539944       0.72753163       2.11400793        2       1.00000000       0.15930645       0.00061682       0.11116072
Ni       3.83268722       0.75003375       2.16714593        3       1.00000000       0.01763074      -0.01749517       0.19444370
Ni       6.40922181       0.76674488       2.18952472        3       1.00000000      -0.09739116       0.13593775       0.21561823
Pt       9.09814258       0.71068932       2.21019399        3       0.00000000       0.16580322       0.00403133      -0.08332531
Ni       2.56124542       2.95453211       2.16994456        3       1.00000000       0.03205270       0.06222733       0.06312404
Ni       5.12681909       2.97611275       2.20302616        3       1.00000000      -0.07059094       0.11491557       0.18698614
Ni       7.71148115       3.00079041       2.18648567        3       1.00000000       0.01249665       0.16182491       0.10473586
Ni      10.31220268       2.93641832       2.23997793        3       1.00000000       0.05155441      -0.00530386       0.27515433
Ni       3.89411610       5.14765795       2.15204428        3       1.00000000       0.15878899      -0.06663653       0.09569142
Ni       6.42056435       5.16555004       2.14721508        2       1.00000000      -0.01438973       0.01156484       0.02543738
Ni       8.94140193       5.10055242       2.18625430        3       1.00000000      -0.14264579      -0.21078810       0.15421223
Pt      11.60146326       5.06318367       2.20872839        3       0.00000000       0.11129596      -0.10081819       0.09592012
Ni       5.17620034       7.30761195       2.13295483        2       1.00000000       0.06942028      -0.17905843       0.07152010
Ni       7.63670945       7.33087088       2.15360245        3       1.00000000      -0.12604376      -0.08443420       0.18135373
Pt      10.23259927       7.27017049       2.17967004        3       0.00000000      -0.05545731      -0.17089512      -0.13249247
Ni      12.88595644       7.26916124       2.21104256        3       1.00000000       0.21044830      -0.23021840       0.05998511
Ni       0.04693686       1.52337404       4.26154676        5       1.00000000      -0.03944735       0.06114495      -0.15338572
Pt       2.53134604       1.54641904       4.20360385        4       0.00000000      -0.05312928       0.00915216       0.06730828
Ni       5.14578933       1.49925694       4.26388620        5       1.00000000      -0.13228182       0.00527443      -0.43560796
Pt       7.71884445       1.51942854       4.27534832        5       0.00000000      -0.05093085      -0.00403975      -0.14377138
Ni       1.28005225       3.71996694       4.32421946        5       1.00000000      -0.05592547       0.02071198       0.01233755
Ni       3.84923590       3.75258068       4.26980266        5       1.00000000      -0.09170936       0.12735794      -0.28329128
Pt       6.39679889       3.75637299       4.30043865        5       0.00000000      -0.03799171       0.04596722      -0.03828735
Ni       9.04971819       3.73562828       4.29884757        5       1.00000000      -0.00411819       0.13687143      -0.26302229
Ni       2.59132024       5.81810982       4.33278819        5       1.00000000       0.02410825      -0.16874829      -0.07621282
Ni       5.13315291       5.86191326       4.29463404        5       1.00000000       0.02768384      -0.07579662      -0.28811314
Ni       7.71373498       5.85653826       4.29500857        5       1.00000000      -0.02365340      -0.00524034      -0.33214410
Ni      10.29596245       5.79060621       4.36373761        6       1.00000000      -0.02534409      -0.08248485      -0.10228438
Pt       3.94125176       7.99350311       4.26459194        5       0.00000000       0.10385810      -0.11579282       0.04534600
Ni       6.42313765       8.06177953       4.27412264        5       1.00000000      -0.04366345      -0.12453381      -0.31771460
Pt       8.91146455       8.05298455       4.28074164        5       0.00000000      -0.10106339       0.00626446      -0.06272801
Pt      11.57983050       7.99189416       4.28782820        5       0.00000000      -0.08279804      -0.18949224      -0.10617545
Pt       0.03392338       0.02087822       6.46390743        8       0.00000000       0.00528375       0.12757554       0.22721941
Pt       2.58439823       0.02167986       6.51181377        8       0.00000000       0.02972333      -0.04824575       0.29294798
Pt       5.18164700       0.01543097       6.40577904        7       0.00000000      -0.02608081       0.18888591       0.92205573
Pt       7.74563069      -0.07281297       6.46047753        8       0.00000000       0.03336474       0.07291637       0.96848758
Ni       1.31160627       2.28955065       6.43659830        7       1.00000000       0.02088363       0.16276125      -0.21489127
Pt       3.87820229       2.34289031       6.39232659        7       0.00000000       0.03352064       0.01819324       0.41096197
Ni       6.45265962       2.25517010       6.41331989        7       1.00000000      -0.06139019       0.03146929       0.18451195
Pt       9.05715464       2.31600148       6.41776590        7       0.00000000       0.11387473      -0.03583820       0.63262310
Ni       2.56172037       4.47231605       6.43116043        7       1.00000000      -0.01759823      -0.02541728      -0.42376985
Ni       5.13605659       4.42671851       6.46804842        8       1.00000000      -0.11971656       0.03031961      -0.26765862
Ni       7.70590487       4.38293970       6.48105635        8       1.00000000      -0.07627959      -0.04052667      -0.24183309
Ni      10.37160724       4.40441507       6.47754911        8       1.00000000       0.17446232      -0.02254858      -0.31881528
Ni       3.83539192       6.54713504       6.46407016        8       1.00000000      -0.06366770      -0.14833832      -0.29247793
Pt       6.38759209       6.52336793       6.48160848        8       0.00000000       0.06830807       0.11885078      -0.18084913
Pt       9.05741638       6.48280671       6.52308791        8       0.00000000       0.01510277      -0.05609070       0.00642180
Ni      11.60940066       6.52984268       6.50964393        8       1.00000000       0.02059160      -0.02762247      -0.23543727
