64
Lattice="10.289144955740237 0.010834600685577404 -0.04355229007183389 5.153955517303688 8.85650878931235 -0.07483610413898209 -0.03556029593522483 -0.050025409188344305 8.760262371740561" Properties=species:S:1:pos:R:3:tags:I:1:initial_magmoms:R:1:forces:R:3 unique_id=b00ada5e4f3241bdb9b8a08f86b8f672 stress="0.00020342903905105209 -2.889968784423904e-06 1.4030683869672127e-05 -2.889968784423904e-06 0.00021318016317133093 6.2180724032309585e-06 1.4030683869672127e-05 6.2180724032309585e-06 0.00019995710195536837" energy=-396.8133243122407 pbc="T T T"
Ni       0.00736818      -0.00869680       0.18346874        4       1.00000000       0.04100163       0.02797448       0.28951002
Ni       2.56320814      -0.00184833       0.19062056        4       1.00000000      -0.04215149       0.00076511       0.34921688
Ni       5.13945328      -0.02592982       0.14536739        4       1.00000000      -0.05934140      -0.01087140       0.22747820
Ni       7.70409131      -0.05379927       0.14238492        4       1.00000000      -0.04718939      -0.11094312       0.28860631
Ni       1.28258550       2.21807915       0.16809259        4       1.00000000      -0.00754767       0.01478619       0.35106259
Pt       3.77409671       2.17834042       0.16267623        4       0.00000000      -0.13335370      -0.03171752       0.20338804
Pt       6.44157784       2.17363665       0.06692546        4       0.00000000       0.00880639      -0.06267716      -0.04954019
Pt       9.07031214       2.26589104       0.07513347        4       0.00000000       0.06755987       0.07035754       0.13244220
Ni       2.53889300       4.45340029       0.03602008        4       1.00000000      -0.09213480       0.01626268       0.02518151
Pt       5.09963153       4.47044652       0.04917456        4       0.00000000      -0.11168129       0.04571094      -0.09385907
Ni       7.73323498       4.45031158       0.01541920        4       1.00000000      -0.06941203       0.03253084       0.11237532
Ni      10.31673786       4.46192098      -0.00295912        4       1.00000000       0.08863337       0.12446210       0.04654286
Ni       3.81355138       6.66457367       0.04827858        4       1.00000000      -0.10217886       0.05225530       0.19037231
Pt       6.45914393       6.69912007       0.03786921        4       0.00000000      -0.03273809      -0.00993272      -0.14998561
Ni       9.02137854       6.64441653       0.06923005        4       1.00000000      -0.01256540       0.00235548       0.17992283
Ni      11.60028282       6.64433816      -0.02025985        4       1.00000000       0.05342481      -0.04781448      -0.00851993
Ni       1.30682569       0.73496866       2.20757887        3       1.00000000       0.01684000       0.01799829       0.15926299
Ni       3.80258741       0.73319391       2.19271602        3       1.00000000      -0.15148038      -0.01878449       0.03290834
Ni       6.43503647       0.73908087       2.17765320        3       1.00000000       0.10990421      -0.01343645       0.02507585
Pt       9.00908286       0.73485273       2.18203671        3       0.00000000       0.07336181       0.20287216      -0.09694283
Ni       2.55460100       2.91451732       2.23760145        3       1.00000000       0.03029606      -0.09605173       0.20272844
Ni       5.12562291       2.96415876       2.19273495        3       1.00000000      -0.10512446       0.13010362      -0.04531982
Ni       7.69265234       2.94496967       2.18660618        3       1.00000000       0.03477670      -0.06350260      -0.04097550
Ni      10.33298611       2.93002324       2.19618824        3       1.00000000       0.10718619      -0.06472672       0.17948010
Ni       3.85953509       5.15551170       2.16714344        3       1.00000000      -0.02559633      -0.02519522       0.02563660
Ni       6.41510428       5.16319117       2.15641178        3       1.00000000      -0.00260652       0.03924483      -0.06685092
Pt       8.95083442       5.12192348       2.15134837        3       0.00000000       0.00047118      -0.02682766       0.00658086
Pt      11.63897035       5.11861407       2.13814750        3       0.00000000       0.07126016      -0.08048160       0.02523028
Ni       5.15417573       7.35291694       2.13258807        3       1.00000000       0.01323984      -0.03788278      -0.00864651
Ni       7.67151709       7.40227473       2.13458492        3       1.00000000      -0.12445865      -0.01564762       0.06908048
Pt      10.32886989       7.41272966       2.08055134        3       0.00000000       0.09274510      -0.04425662       0.06381615
Ni      12.87947529       7.35806032       2.07466510        3       1.00000000       0.07820402      -0.11614489      -0.01391340
Ni       0.02164260       1.48177951       4.30449236        2       1.00000000       0.11509508       0.05613912      -0.04874721
Ni       2.50798105       1.48367716       4.27039068        2       1.00000000      -0.06187086       0.06270592      -0.08558417
Pt       5.14470497       1.45551380       4.21394574        2       0.00000000      -0.10369538      -0.00600206       0.04716069
Ni       7.70418383       1.46162586       4.27781748        2       1.00000000       0.01906231      -0.05809462      -0.11943842
Ni       1.27657431       3.68019754       4.31388814        2       1.00000000       0.03305282      -0.00800673      -0.06339976
Ni       3.78331841       3.70012151       4.27128475        2       1.00000000      -0.12086871       0.01156436      -0.20808660
Pt       6.49102834       3.67978641       4.28726106        2       0.00000000       0.06474850      -0.05745620      -0.10104661
Ni       9.03696853       3.69926439       4.26551903        2       1.00000000       0.20362354       0.00899425      -0.12835312
Ni       2.52929759       5.84629031       4.34370143        2       1.00000000      -0.03787701      -0.04753439      -0.03418703
Pt       5.12248705       5.87390436       4.27725748        2       0.00000000       0.00072567      -0.04513201      -0.15505921
Ni       7.70745166       5.87135991       4.28017803        2       1.00000000      -0.00892445       0.01808597      -0.11780898
Ni      10.31873382       5.84092078       4.30143082        2       1.00000000       0.10016889      -0.04975525      -0.03972230
Pt       3.81292227       8.07593998       4.23375717        2       0.00000000      -0.08149533      -0.01169326       0.13598198
Ni       6.41627748       8.10811541       4.22441696        2       1.00000000      -0.09953752       0.08393184      -0.16367669
Pt       8.94298500       8.05753569       4.19405893        2       0.00000000      -0.07717574      -0.05587334       0.13049722
Ni      11.57238528       8.05433640       4.23432294        2       1.00000000      -0.02978471      -0.13020855      -0.04012852
Pt      -0.02546684      -0.10189590       6.52467800        1       0.00000000       0.05228931      -0.06331353       0.10143400
Pt       2.53800962      -0.05785801       6.50924753        1       0.00000000      -0.03805749       0.03990906       0.15651993
Pt       5.14595448      -0.05668053       6.51857826        1       0.00000000       0.06564444      -0.02321828       0.03726913
Pt       7.68004134      -0.07990502       6.49425491        1       0.00000000      -0.06550046      -0.08143341       0.15587536
Pt       1.25852500       2.28501116       6.45064230        1       0.00000000       0.05130399       0.07611641       0.10498230
Pt       3.87139617       2.29707989       6.39713377        1       0.00000000       0.08793185       0.22403610      -0.24222494
Ni       6.41504823       2.22369608       6.38806387        1       1.00000000      -0.01776846       0.02795914      -0.23494507
Pt       8.93292200       2.27792249       6.32259956        1       0.00000000      -0.03667650       0.09828177      -0.36452901
Ni       2.54767119       4.47107876       6.42463767        1       1.00000000       0.03888153       0.15102139      -0.24297676
Ni       5.13626019       4.43768172       6.37546146        1       1.00000000       0.04644089       0.14373477      -0.23000889
Ni       7.66363627       4.40958006       6.42786851        1       1.00000000      -0.15057436       0.02644383      -0.12510229
Ni      10.30416888       4.43250810       6.39314872        1       1.00000000       0.17880399       0.03415870      -0.25897470
Ni       3.82235757       6.53898683       6.44127604        1       1.00000000      -0.00030263      -0.12706351      -0.08520212
Ni       6.40815083       6.55261679       6.35237622        1       1.00000000       0.04796506      -0.05510407      -0.25825002
Pt       8.99725903       6.48049293       6.43174807        1       0.00000000       0.01388592      -0.06599900       0.08015369
Ni      11.58848606       6.54579425       6.38419491        1       1.00000000       0.04233495      -0.07797920      -0.21376726
