64
Lattice="10.47873921553206 0.02045232828670813 0.033503303570646875 5.257081843628858 9.121673803100423 -0.01949291264271678 0.0 0.0 21.724914996097922" Properties=species:S:1:pos:R:3:tags:I:1:initial_magmoms:R:1:forces:R:3 unique_id=eeeb4aa4c1b24ce6bd486ae3c9dcbad7 stress="0.006246412255922311 4.988639195104744e-06 0.0002566116043467551 4.988639195104744e-06 0.0060782211994413835 -0.0002519802361118648 0.0002566116043467551 -0.0002519802361118648 -0.0006688928175889383" energy=-385.4937509308467 pbc="T T T"
Ni      -0.03782902      -0.01720754       0.07246169        1       1.00000000      -0.28922193      -0.11608589       0.14403045
Ni       2.63587298      -0.02839813       0.07483972        1       1.00000000       0.12602642      -0.13938506       0.06705591
Ni       5.25765989      -0.02762961       0.07416609        1       1.00000000       0.19502915      -0.02933603       0.04713634
Ni       7.88368504      -0.01049646       0.04905557        0       1.00000000       0.07136972      -0.14871957       0.79574454
Pt       1.25201546       2.24355538       0.03004030        0       0.00000000       0.03854548      -0.03087471      -0.97448307
Pt       3.96932111       2.25273906       0.04870716        0       0.00000000       0.08630271       0.07538082      -0.90810661
Pt       6.59667243       2.22265830       0.08637472        1       0.00000000       0.04735503      -0.25208987      -0.11160257
Ni       9.17096759       2.26926917       0.01375019        0       1.00000000      -0.04077732      -0.18607975       0.46663475
Pt       2.62819585       4.63275420       0.02341059        0       0.00000000       0.00252558       0.05899958      -1.06200117
Ni       5.26140310       4.57336076       0.06097600        1       1.00000000       0.20984290      -0.06027972       0.08839801
Pt       7.92596328       4.58542845       0.08753689        1       0.00000000       0.00855655       0.07904734       0.01649290
Ni      10.47658702       4.59772599       0.00000000        0       1.00000000       0.02344952       0.11627946       0.35826662
Ni       3.94092121       6.87974342       0.06664397        1       1.00000000      -0.07969424       0.29372884       0.22852509
Pt       6.55246497       6.88506708       0.12288678        1       0.00000000      -0.06599333       0.03685786      -0.13551482
Ni       9.20264301       6.85635665       0.00580949        0       1.00000000       0.00397664      -0.01693499       0.55242050
Ni      11.79815844       6.88255901       0.06809835        1       1.00000000       0.16519220       0.16018418       0.13516677
Pt       1.26684024       0.64966561       2.15305083        3       0.00000000      -0.10123830      -0.16226911       0.10794519
Pt       4.00559896       0.73439395       2.20752536        3       0.00000000       0.11351577       0.00907600       0.29004357
Ni       6.58835433       0.75293939       2.22472214        3       1.00000000       0.20156474      -0.09759541       0.18979151
Ni       9.13811342       0.73782222       2.19413951        3       1.00000000      -0.25363380      -0.06105099      -0.14375272
Pt       2.65104211       3.04290706       2.22028424        3       0.00000000      -0.09601119       0.04985900       0.34281707
Ni       5.28549872       3.03897018       2.22467027        3       1.00000000       0.11885090       0.02460333       0.33636341
Pt       7.81701118       3.03303628       2.32092599        4       0.00000000      -0.17262348      -0.06765273       0.38878827
Pt      10.40085118       3.06450062       2.20906815        3       0.00000000      -0.33302978       0.06991587      -0.00697229
Pt       4.03792017       5.38303806       2.14313079        2       0.00000000       0.18145908       0.15464918      -0.02136496
Ni       6.59684124       5.32838920       2.21142337        3       1.00000000       0.25970561      -0.03751746       0.33838446
Ni       9.15605603       5.35026448       2.23763519        3       1.00000000      -0.21653478       0.15490679       0.33889560
Pt      11.74963771       5.38080959       2.19964341        3       0.00000000      -0.15358215      -0.00136979       0.14446350
Ni       5.24170902       7.60134264       2.15898920        3       1.00000000      -0.19043568       0.08846084       0.13527282
Ni       7.88428527       7.55466268       2.19135191        3       1.00000000       0.14158261      -0.28398760       0.23980996
Pt      10.48991222       7.59527896       2.12446465        2       0.00000000      -0.09677914       0.01827251      -0.05927642
Ni      13.13910388       7.65857724       2.16824943        3       1.00000000       0.04152668       0.23929633      -0.12207164
Pt      -0.10107998       1.54480171       4.41230076        6       0.00000000      -0.29449878       0.07402707      -0.25232995
Pt       2.65616013       1.48769621       4.41230265        6       0.00000000      -0.06797377      -0.07670160      -0.27410687
Ni       5.30395578       1.52033950       4.41846751        6       1.00000000       0.14452373       0.01734681      -0.47537168
Ni       7.85439884       1.54594619       4.43707481        6       1.00000000      -0.11055514       0.09515192      -0.27174582
Pt       1.22416151       3.84135502       4.42727986        6       0.00000000      -0.21603606       0.18935434      -0.20629483
Pt       4.04724945       3.75586059       4.37172981        6       0.00000000       0.21550660      -0.02513633      -0.30985840
Ni       6.61260908       3.77219242       4.42459128        6       1.00000000       0.14951454      -0.00698247      -0.34370013
Ni       9.15379296       3.82533274       4.44425440        6       1.00000000      -0.19917759       0.10688086      -0.32571752
Pt       2.61389577       6.09162446       4.37545440        6       0.00000000       0.02602889       0.09133695      -0.31837629
Pt       5.35267204       6.02750498       4.35075245        6       0.00000000       0.24254703      -0.09821324      -0.29367828
Ni       7.92870401       6.03059395       4.40721299        6       1.00000000       0.22920396      -0.21045000      -0.48348243
Ni      10.44770122       6.05956801       4.46579200        7       1.00000000      -0.23019071      -0.04773045      -0.09814990
Pt       3.92963452       8.38051035       4.33004967        5       0.00000000       0.02858935      -0.00633849      -0.39303615
Pt       6.59081609       8.31150093       4.35253678        6       0.00000000      -0.06591768      -0.00502844      -0.29843264
Pt       9.21774150       8.26326738       4.41396682        6       0.00000000       0.02648962      -0.26154137      -0.15666814
Pt      11.81755108       8.43457103       4.38677278        6       0.00000000      -0.06552854       0.23472927      -0.29804603
Pt      -0.05722656       0.02053389       6.72080172       10       0.00000000       0.07887103       0.02814558       0.07211724
Pt       2.65191285      -0.05298820       6.72491500       10       0.00000000      -0.16220377       0.11406966       0.34160943
Pt       5.28614958      -0.03210591       6.71820059       10       0.00000000       0.03516626       0.18671431       0.09408447
Ni       7.87838546       0.00603428       6.69365350       10       1.00000000      -0.02254930      -0.02592260      -0.36907074
Pt       1.24737710       2.29439114       6.61477391        9       0.00000000      -0.03670067      -0.04872944       0.86789715
Pt       3.97493863       2.25004339       6.60921362        9       0.00000000       0.10753473      -0.08674820       0.83886566
Pt       6.65991585       2.23015305       6.55527102        9       0.00000000       0.07033440       0.08786016       0.18162043
Ni       9.18356017       2.27924247       6.68345251       10       1.00000000      -0.04308400       0.06896228      -0.30935541
Pt       2.60569630       4.54732054       6.60716537        9       0.00000000       0.06916590      -0.01142286       0.83148253
Pt       5.30246455       4.53787763       6.67679034       10       0.00000000       0.29947477      -0.05336654       0.22225620
Pt       7.99739413       4.54308326       6.54966747        8       0.00000000      -0.02644647      -0.05552378       0.03776401
Ni      10.47672866       4.56584167       6.67199266       10       1.00000000      -0.01572141       0.06636483      -0.28197392
Pt       3.92917812       6.85934048       6.70145503       10       0.00000000      -0.01891922      -0.03525664       0.09244787
Pt       6.63545908       6.81112636       6.61666844        9       0.00000000       0.05842390      -0.06567107       0.37798754
Ni       9.21619330       6.80228223       6.65905529       10       1.00000000       0.02748840      -0.03406487      -0.28829238
Pt      11.74299152       6.81867583       6.70732049       10       0.00000000      -0.18018221      -0.14440488      -0.11774602
