64
Lattice="10.36617683974694 -0.0010515726154176593 0.02874761067680301 5.182177731274595 8.899318119337758 -0.0026829717858480344 0.0 0.0 21.61942193964717" Properties=species:S:1:pos:R:3:tags:I:1:initial_magmoms:R:1:forces:R:3 unique_id=53842d85c1ac44a2b9b5074f37f93d7e energy=-378.18905764912466 stress="0.0057182205597601675 -1.646801580639637e-05 0.00038129001561573316 -1.646801580639637e-05 0.005745748403347029 1.3876410953136264e-05 0.00038129001561573316 1.3876410953136264e-05 -0.0015701232748989557" pbc="T T T"
Ni       0.01202830      -0.00024972       0.13523160        1       1.00000000       0.09049817       0.05330410      -0.09118587
Ni       2.59233060       0.00420149       0.06786339        1       1.00000000      -0.03203210       0.03272207       0.42147649
Ni       5.17757957      -0.02610246       0.11460043        1       1.00000000      -0.03320765       0.09085591      -0.31590715
Ni       7.77515186      -0.06239328       0.15536286        2       1.00000000      -0.06266565      -0.09064667      -0.08270977
Ni       1.30294678       2.22194323       0.12521613        1       1.00000000       0.00880846      -0.02707722       0.19928390
Pt       3.80167184       2.17027324       0.07143325        1       0.00000000       0.02071027       0.07473142       0.15512069
Pt       6.47903183       2.13439318       0.07374855        1       0.00000000       0.07761395      -0.05861767      -0.05226066
Pt       9.16322174       2.21932919       0.09570798        1       0.00000000       0.04782394       0.07836248      -0.47334376
Ni       2.55825460       4.46608975       0.07924493        1       1.00000000      -0.01423179      -0.06505082      -0.11935009
Pt       5.14732578       4.46858848       0.09855936        1       0.00000000       0.09472033      -0.07775948      -0.82085463
Pt       7.82631296       4.48994756       0.00000000        0       0.00000000      -0.08245291      -0.03661916      -0.27345556
Ni      10.41436532       4.47581214       0.04001462        0       1.00000000       0.09798654      -0.02372755       0.16284307
Ni       3.84143372       6.71602965       0.04752172        0       1.00000000      -0.02959076       0.05630087       0.37776466
Pt       6.48760232       6.77761574       0.15232714        2       0.00000000      -0.01017744      -0.06053856      -0.52846505
Ni       9.10428790       6.70914484       0.03124641        0       1.00000000      -0.02628391       0.07225525       0.17053823
Ni      11.67885167       6.67832561       0.03745073        0       1.00000000       0.11643301       0.03672566       0.29227324
Ni       1.33386916       0.76297326       2.15924278        4       1.00000000       0.10663662       0.11519244       0.00621295
Ni       3.86190541       0.76980939       2.20673421        4       1.00000000      -0.11206877       0.13445868       0.24256980
Ni       6.47934411       0.76505572       2.21616838        4       1.00000000      -0.03187641       0.15954559       0.23815252
Pt       9.08339040       0.73835273       2.23165831        4       0.00000000       0.01978338       0.16718075       0.04870970
Ni       2.58458957       2.90908508       2.21939028        4       1.00000000       0.00608163      -0.14217410       0.34501567
Ni       5.17778826       2.91419364       2.23770140        4       1.00000000      -0.14292985      -0.14669653       0.23868360
Ni       7.76207736       2.94094325       2.22684079        4       1.00000000      -0.01596742      -0.04900388       0.09078228
Ni      10.41452281       2.93229385       2.24565317        4       1.00000000       0.11062835      -0.12633986       0.30393744
Pt       3.87535092       5.18755856       2.22116671        4       0.00000000       0.01894708      -0.13185534      -0.00500728
Ni       6.49297878       5.18604263       2.21030933        4       1.00000000       0.02166052      -0.05843501       0.15195344
Pt       9.03143645       5.15679351       2.24186330        4       0.00000000      -0.12295372      -0.13377074       0.01541257
Pt      11.66840297       5.13147259       2.18083403        4       0.00000000      -0.10836451      -0.09165098       0.13605795
Ni       5.18816739       7.42845273       2.17091417        4       1.00000000      -0.06155805       0.00237184       0.13398696
Ni       7.77413824       7.45528774       2.18993393        4       1.00000000       0.04733368       0.16725089       0.08938993
Pt      10.36752448       7.46937642       2.10473340        3       0.00000000       0.00535700      -0.01741506      -0.03308398
Ni      12.96783921       7.41655188       2.16579018        4       1.00000000      -0.00181187      -0.00230553       0.04999965
Ni       0.03241234       1.54088291       4.31499093        5       1.00000000       0.07838959       0.16400501      -0.29486899
Ni       2.61930036       1.53593341       4.32888490        5       1.00000000       0.04030822       0.14204440      -0.29647195
Ni       5.16710796       1.51451229       4.34778556        5       1.00000000      -0.09707145       0.09482823      -0.29095219
Ni       7.78525503       1.49520384       4.34723897        5       1.00000000       0.03743507      -0.10148378      -0.29175235
Ni       1.31985817       3.65530169       4.32620893        5       1.00000000       0.05172716      -0.15298095      -0.31814177
Ni       3.85718965       3.64044810       4.33866157        5       1.00000000      -0.08447149      -0.15986459      -0.28083347
Pt       6.54149793       3.62813810       4.29346375        5       0.00000000       0.01891478      -0.01915624      -0.20544409
Ni       9.09357280       3.67946640       4.34543455        5       1.00000000       0.09215099      -0.16502785      -0.32198330
Ni       2.59231650       5.89612111       4.36715156        6       1.00000000      -0.02325220      -0.07808837      -0.11096263
Pt       5.19293979       5.89828686       4.31925640        5       0.00000000       0.06127614      -0.04489531       0.03238642
Ni       7.80110666       5.89400836       4.36343066        6       1.00000000      -0.02937822      -0.03213616      -0.21096807
Pt      10.37894717       5.84352463       4.47149608        7       0.00000000       0.06318190      -0.02862663       0.12898976
Pt       3.88923251       8.15956442       4.32413830        5       0.00000000      -0.02240945       0.04612267       0.06823145
Pt       6.50806929       8.23305064       4.25750228        5       0.00000000      -0.05151873       0.32967101      -0.11280679
Pt       9.05452808       8.19789578       4.34554245        5       0.00000000      -0.10007752       0.09094264      -0.09443051
Pt      11.67114013       8.18365569       4.32063182        5       0.00000000       0.02908903       0.08163980      -0.10194925
Pt       0.03450090      -0.02863255       6.58636362       10       0.00000000       0.01118787       0.17006729       0.30534363
Ni       2.62390140      -0.00989140       6.54494772        9       1.00000000      -0.05644770      -0.02661836      -0.14566080
Pt       5.13131425       0.00144623       6.59448363       10       0.00000000       0.03424515       0.15343150       0.24124377
Pt       7.75322144      -0.04570124       6.61942194       10       0.00000000      -0.14364520       0.22543042       0.31958440
Pt       1.36041480       2.21508961       6.49266548        9       0.00000000      -0.03503246       0.04185763      -0.13725302
Ni       3.90048716       2.19850033       6.43702623        8       1.00000000      -0.04303562      -0.00023075      -0.08036083
Ni       6.48827618       2.20395197       6.45905160        9       1.00000000      -0.00577091      -0.20034583       0.01854583
Pt       9.05012747       2.29513729       6.42503606        8       0.00000000       0.02038813      -0.14380546       0.42843058
Pt       2.56699100       4.49981200       6.50197849        9       0.00000000       0.02516430      -0.11430463      -0.07419722
Pt       5.19907233       4.36118155       6.47396576        9       0.00000000      -0.01129175      -0.06924123       0.71481710
Ni       7.82003824       4.44843268       6.43554239        8       1.00000000       0.03051350       0.09185168       0.03990028
Ni      10.36011735       4.46303738       6.55224584       10       1.00000000      -0.02621837      -0.09793230      -0.10912720
Ni       3.88289076       6.65196587       6.53181492        9       1.00000000       0.07936338      -0.03970388      -0.13008863
Pt       6.58784812       6.64032954       6.48902996        9       0.00000000       0.12362465      -0.16692873       0.51691500
Ni       9.10548811       6.62854494       6.55077577       10       1.00000000       0.01657183      -0.05049652      -0.13471974
Ni      11.65767024       6.64332873       6.56104222       10       1.00000000      -0.08676077       0.15840151      -0.14595637
