64
Lattice="10.399659263431865 0.005511505199207094 0.016283784522003342 5.204602735231535 8.924147999248518 -0.018442779311319765 0.0 0.0 21.592443857228787" Properties=species:S:1:pos:R:3:tags:I:1:initial_magmoms:R:1:forces:R:3 unique_id=6ec279e6a74e429892a001d3a36d612f stress="0.0060650701822821 0.00019671751368784322 0.0004079070133259762 0.00019671751368784322 0.00574217297690816 -1.0116067035179344e-05 0.0004079070133259762 -1.0116067035179344e-05 -0.0014978683758591384" energy=-378.861266876221 pbc="T T T"
Ni      -0.03557919      -0.00807203       0.12731291        1       1.00000000      -0.10411411       0.01439473       0.07192769
Ni       2.62158722      -0.01939846       0.04815577        0       1.00000000       0.07723414      -0.00169814       0.41066829
Ni       5.20274071      -0.02656139       0.10123636        1       1.00000000       0.03134430       0.13921437      -0.25948090
Ni       7.82311347      -0.04042952       0.05575521        1       1.00000000       0.01332023      -0.08847153       0.48828563
Pt       1.27927822       2.19836798       0.07406967        1       0.00000000       0.11592793      -0.12048530      -0.61983622
Pt       3.89703205       2.21932096       0.12033302        1       0.00000000      -0.01291133      -0.02393241      -0.35087555
Pt       6.51713551       2.15545711       0.08735232        1       0.00000000      -0.06211631      -0.15600012      -0.63956217
Ni       9.10631205       2.20203800       0.08272726        1       1.00000000       0.01524293      -0.15699448      -0.03124171
Ni       2.60580477       4.49102213       0.06593922        1       1.00000000      -0.00712118      -0.08188193      -0.22936094
Ni       5.19824520       4.47075221       0.09200745        1       1.00000000       0.20238080      -0.06176810      -0.17877526
Pt       7.87214896       4.49664953       0.00343219        0       0.00000000      -0.03853318       0.05580915      -0.01309434
Ni      10.41522381       4.49911287       0.00000000        0       1.00000000       0.05927334       0.06020525       0.24241644
Ni       3.87717046       6.71771733       0.09876093        1       1.00000000      -0.04556519       0.16663332      -0.00692413
Pt       6.48742412       6.75276490       0.12751440        1       0.00000000      -0.07020358       0.01862941      -0.41365269
Ni       9.12860293       6.71697819       0.00326270        0       1.00000000      -0.04940381      -0.00703659       0.27580073
Ni      11.71433410       6.71070184       0.00015541        0       1.00000000       0.12329794       0.09128698       0.30436974
Ni       1.32482300       0.70611890       2.16391314        3       1.00000000       0.11242349      -0.03552873       0.04757629
Ni       3.88073279       0.75445033       2.19774543        3       1.00000000      -0.10115878       0.07786766       0.24997194
Ni       6.50664006       0.72071858       2.19612443        3       1.00000000       0.00821845      -0.01037200       0.22583911
Ni       9.09819688       0.70094525       2.14675351        2       1.00000000      -0.05441023      -0.10475291      -0.03599208
Ni       2.63031326       2.93665869       2.20403186        3       1.00000000       0.06203163      -0.10784295       0.36815983
Ni       5.18308153       2.94699971       2.20739763        3       1.00000000      -0.03728686      -0.10952577       0.34888425
Pt       7.80525096       2.94059729       2.21802278        3       0.00000000      -0.08529872      -0.07377487       0.04388872
Pt      10.37895794       2.92465798       2.21714578        3       0.00000000       0.06325742      -0.00532103      -0.01665035
Pt       3.93118184       5.19075580       2.11659747        2       0.00000000       0.02512401      -0.04268720       0.11763597
Ni       6.52918918       5.21569515       2.16706385        3       1.00000000       0.13516979      -0.03237037       0.23882850
Ni       9.08310642       5.23307306       2.19634979        3       1.00000000      -0.10727944       0.05342881       0.24381354
Pt      11.70107513       5.23414299       2.12729433        2       0.00000000      -0.06100035      -0.02569656       0.01149524
Ni       5.19476610       7.47359111       2.13202698        2       1.00000000      -0.06264649       0.10304519       0.09835738
Ni       7.80757219       7.44303086       2.15605560        3       1.00000000       0.05086949       0.04301428       0.09297320
Pt      10.36903442       7.46583392       2.08144068        2       0.00000000      -0.06835350       0.02265690      -0.04233637
Ni      13.02314492       7.47479056       2.12310966        2       1.00000000      -0.03230511       0.11829910      -0.03142099
Ni      -0.01332998       1.49376405       4.31005700        5       1.00000000      -0.06622460       0.06486591      -0.24018424
Ni       2.62607182       1.49113491       4.27914863        5       1.00000000       0.07198904       0.10966293      -0.42847285
Ni       5.19091829       1.48542520       4.28269035        5       1.00000000      -0.04640085       0.05071156      -0.46539049
Ni       7.82463624       1.48026068       4.32355917        5       1.00000000       0.00582500       0.02374388      -0.26306603
Pt       1.30140336       3.72857849       4.30407680        5       0.00000000       0.07612702       0.06234897       0.10159883
Ni       3.89705609       3.67431595       4.29927342        5       1.00000000       0.00632146      -0.10359100      -0.34590287
Pt       6.53159243       3.69732420       4.30096573        5       0.00000000      -0.08553607       0.02073902       0.08284845
Ni       9.11548386       3.74282407       4.36535375        6       1.00000000       0.03066878       0.08966583      -0.14981944
Ni       2.58754490       5.93382901       4.32569592        5       1.00000000       0.01958937       0.03574663      -0.19243133
Pt       5.20248172       5.93090249       4.26869954        5       0.00000000      -0.03959759       0.10036129      -0.05684324
Ni       7.87105526       5.90666288       4.31542154        5       1.00000000       0.12641104      -0.04573188      -0.29711228
Ni      10.37926414       5.92025067       4.38160416        6       1.00000000      -0.03985819       0.04546048      -0.06593112
Pt       3.89049091       8.22842347       4.23200577        4       0.00000000      -0.01285498       0.06750843      -0.10377059
Pt       6.53142889       8.23695126       4.23008270        4       0.00000000      -0.02106074       0.17387967      -0.10664066
Pt       9.09636810       8.16237312       4.31707582        5       0.00000000      -0.05505394       0.01032427      -0.01053376
Pt      11.71880836       8.16721728       4.31607190        5       0.00000000      -0.03724007      -0.00579580      -0.04278525
Pt      -0.00017130      -0.01615169       6.56969035        9       0.00000000       0.05888968       0.11261976       0.14014397
Ni       2.62731106      -0.03806831       6.52733553        8       1.00000000       0.01192571      -0.03993265      -0.13497025
Pt       5.20315585      -0.12385289       6.59244386        9       0.00000000      -0.04299054       0.03605991       0.21179865
Ni       7.79208891      -0.02001829       6.54030483        8       1.00000000      -0.04431427       0.03509484      -0.19442042
Pt       1.30158455       2.19709462       6.43722950        7       0.00000000      -0.06197559      -0.09846905       0.58855340
Pt       3.89556289       2.16854991       6.41377655        7       0.00000000       0.09123758      -0.01403095       0.37267319
Pt       6.53762822       2.15893804       6.44859330        7       0.00000000      -0.11313294      -0.18760479       0.62288862
Pt       9.10257905       2.28173227       6.50131450        8       0.00000000       0.05231912       0.02608860      -0.07611855
Pt       2.53132807       4.49738015       6.53074665        8       0.00000000       0.09787499      -0.03394837       0.20030531
Pt       5.23099575       4.44919881       6.55335091        9       0.00000000      -0.04684830       0.00948479       0.34589648
Ni       7.86827867       4.47070578       6.42661990        7       1.00000000       0.07035448       0.08356485       0.02140129
Ni      10.36574716       4.51202979       6.50051843        8       1.00000000      -0.12594321       0.10719445      -0.34939340
Pt       3.82639679       6.72571403       6.55786142        9       0.00000000       0.02253569      -0.10339873       0.08754380
Pt       6.63587182       6.67551351       6.46579597        8       0.00000000       0.06115743      -0.08894665       0.33471302
Ni       9.14306662       6.62650060       6.50221161        8       1.00000000       0.06093055      -0.16841091      -0.33411783
Ni      11.66945507       6.66289179       6.51760117        8       1.00000000      -0.12053276      -0.09360942      -0.26414917
