64
Lattice="10.448288786128321 0.035930900344372664 0.005081146776681158 5.255261465543234 9.037573499661393 -0.05344845842332711 0.004148738970351948 -0.052786965421465985 8.955872824684002" Properties=species:S:1:pos:R:3:tags:I:1:initial_magmoms:R:1:forces:R:3 unique_id=ce99591df3a64610b35deb44679e8ebd stress="-0.004126854589163294 -4.4812889614868923e-05 1.5213986735113002e-05 -4.4812889614868923e-05 -0.004097339217709904 3.205943355922703e-05 1.5213986735113002e-05 3.205943355922703e-05 -0.0035277978858986522" energy=-405.47235332455523 pbc="T T T"
Ni      -0.05935461      -0.02219676       0.17797164        4       1.00000000      -0.21230675      -0.06016483       0.13369205
Ni       2.64325374      -0.02885028       0.17349946        4       1.00000000       0.14101963      -0.08847742       0.17793091
Ni       5.25166343      -0.02160858       0.15849993        4       1.00000000       0.09421619      -0.00859837       0.14132436
Ni       7.86168268      -0.02433089       0.12219773        4       1.00000000       0.02577260      -0.13876673       0.10746655
Pt       1.28933893       2.27921468       0.12115759        4       0.00000000      -0.00821751       0.01146278      -0.09950997
Pt       3.93010612       2.31223242       0.14934962        4       0.00000000       0.02288166       0.10111173      -0.04985496
Pt       6.57156281       2.19835492       0.13335711        4       0.00000000       0.07020793      -0.12991624      -0.07503698
Ni       9.14501054       2.24561838       0.14922301        4       1.00000000      -0.05711687      -0.15321771       0.16307045
Ni       2.62974400       4.55456312       0.03191570        4       1.00000000       0.04263717       0.07093963      -0.07291486
Ni       5.25212876       4.53136577       0.12951708        4       1.00000000       0.21954586      -0.04426161       0.11131635
Pt       7.92560147       4.55081507       0.05032802        4       0.00000000       0.08562230      -0.04797636      -0.13218414
Ni      10.47737595       4.58808371       0.02798132        4       1.00000000       0.03150080       0.11233661      -0.05181980
Ni       3.91242673       6.80612320       0.14519187        4       1.00000000      -0.03637781       0.10423147       0.17105525
Pt       6.53593110       6.82611932       0.16815923        4       0.00000000      -0.01683826       0.00287242       0.02489412
Ni       9.19148630       6.79870320       0.03752543        4       1.00000000       0.01205310      -0.01254114      -0.00529515
Ni      11.79984249       6.81228458       0.02240348        4       1.00000000       0.10992405       0.04324080      -0.06246279
Pt       1.27197351       0.66154358       2.18930285        3       0.00000000      -0.03320016      -0.04413282       0.05156247
Pt       3.98593738       0.76635463       2.24561127        3       0.00000000       0.05111980       0.01498585       0.07828341
Ni       6.57489091       0.74316707       2.26195733        3       1.00000000       0.08301210      -0.03655571       0.01341774
Ni       9.08918459       0.73081892       2.20185680        3       1.00000000      -0.14180132      -0.00751153      -0.03801859
Ni       2.62475015       3.02093636       2.23507905        3       1.00000000      -0.06911576       0.00369823       0.03244764
Ni       5.25964680       3.01392490       2.25454827        3       1.00000000       0.07373721      -0.00371880       0.00413582
Pt       7.78993674       3.02262496       2.34517752        3       0.00000000      -0.05160429       0.03822139      -0.00515036
Pt      10.38544307       3.06723934       2.21727750        3       0.00000000      -0.11770600       0.06356724       0.00217402
Pt       3.98067090       5.27682430       2.12422214        3       0.00000000       0.02446466      -0.02538791       0.01836161
Ni       6.59087516       5.27685214       2.23222791        3       1.00000000       0.12164385       0.01114003       0.00011599
Ni       9.12530726       5.31012700       2.26102584        3       1.00000000      -0.05378764       0.03455377       0.08928323
Pt      11.77720601       5.30085932       2.13264504        3       0.00000000       0.03269439      -0.03290557      -0.06276043
Ni       5.21123871       7.52269730       2.17750721        3       1.00000000      -0.10098292       0.00428186       0.01704305
Ni       7.88052519       7.46980053       2.20661066        3       1.00000000       0.05986859      -0.11903052       0.06172891
Pt      10.47711621       7.51022037       2.11674754        3       0.00000000       0.00120754      -0.05195394       0.00476004
Ni      13.10247144       7.59655154       2.14848724        3       1.00000000      -0.05179155       0.03599430      -0.05975353
Pt      -0.09855313       1.52073294       4.39665754        2       0.00000000      -0.13315534       0.03576676      -0.01765664
Pt       2.63457819       1.48845118       4.38749989        2       0.00000000      -0.08675607      -0.05088135      -0.03518189
Ni       5.28289169       1.50802106       4.40220036        2       1.00000000       0.05020809       0.02687614      -0.14550178
Ni       7.80787797       1.53557802       4.40806846        2       1.00000000      -0.04191918       0.02110664      -0.08614514
Pt       1.24047009       3.81215567       4.44093075        2       0.00000000      -0.04740508       0.05095829      -0.09105026
Pt       3.99583958       3.71870028       4.34829801        2       0.00000000       0.00680895       0.00163896      -0.06934779
Ni       6.59928783       3.74644949       4.42868729        2       1.00000000       0.02261177       0.02224254       0.04196340
Ni       9.10011437       3.82995420       4.45211143        2       1.00000000      -0.04365177       0.06567505      -0.03757741
Pt       2.58555634       6.01003026       4.43493209        2       0.00000000       0.03282245       0.03285401      -0.05325248
Pt       5.33361769       5.95468736       4.33146314        2       0.00000000       0.03914620      -0.05789399       0.00339128
Ni       7.91917424       5.93307828       4.39361625        2       1.00000000       0.03648472      -0.09517754      -0.13145194
Ni      10.41055114       5.99684038       4.46181765        2       1.00000000      -0.04340865      -0.02458025      -0.07372443
Pt       3.91681470       8.27802141       4.31077657        2       0.00000000       0.02694581      -0.03224070      -0.05143293
Pt       6.58098085       8.21400679       4.33484377        2       0.00000000      -0.00232272       0.00813637       0.02598161
Pt       9.18976401       8.16785003       4.39187309        2       0.00000000      -0.02373416      -0.02097928       0.03002813
Pt      11.78289055       8.34505710       4.36750329        2       0.00000000      -0.01804986       0.03601279      -0.05002349
Pt      -0.05208593      -0.03437328       6.72752129        1       0.00000000      -0.02963321       0.04934493       0.11023435
Pt       2.64254486      -0.06571402       6.73220967        1       0.00000000       0.02485591       0.02435651       0.16746190
Pt       5.28597034      -0.11967485       6.72348283        1       0.00000000       0.05088928      -0.12263135       0.13978694
Ni       7.82878664      -0.00941329       6.65435823        1       1.00000000       0.02894341       0.06982256      -0.10015719
Pt       1.29803334       2.31744221       6.59989931        1       0.00000000      -0.01307688       0.07337252       0.02900149
Pt       3.93416678       2.25058588       6.58894390        1       0.00000000       0.03059635      -0.02501412      -0.00156780
Pt       6.56794606       2.22660026       6.51404446        1       0.00000000      -0.01442794      -0.02702639      -0.05922378
Pt       9.12425490       2.34464807       6.66633968        1       0.00000000       0.01895245       0.16814621       0.16456366
Ni       2.58500118       4.51662924       6.63368922        1       1.00000000      -0.07619378       0.06701169      -0.12306786
Pt       5.25391599       4.50298808       6.65810352        1       0.00000000      -0.03814230       0.03806442       0.07202442
Ni       7.90701469       4.52627287       6.51262996        1       1.00000000       0.05084550       0.08535580      -0.18562922
Ni      10.43782048       4.59329196       6.61093434        1       1.00000000      -0.06589119       0.15791753      -0.12048542
Pt       3.83036362       6.74462471       6.70619576        1       0.00000000      -0.10358160       0.05163535       0.18282498
Pt       6.64474569       6.69270217       6.57784516        1       0.00000000       0.05786299       0.00289366       0.02754177
Ni       9.21361170       6.68660543       6.59537387        1       1.00000000       0.05816637      -0.11528614      -0.11887010
Ni      11.73690076       6.71764842       6.62492532        1       1.00000000      -0.10707311      -0.16499852      -0.13275877
