64
Lattice="10.268691160780914 0.012833335703028283 -0.02109160158418684 5.145459575124577 8.907828051665122 0.010024048719276958 0.0 0.0 21.507548908876412" Properties=species:S:1:pos:R:3:tags:I:1:initial_magmoms:R:1:forces:R:3 unique_id=c7b02378c38e4471abe556ff2e11143b energy=-375.14408541118667 stress="0.005411456930548113 0.00034437603097803066 -4.204125227984345e-05 0.00034437603097803066 0.005855540530958766 0.00012652455155890094 -4.204125227984345e-05 0.00012652455155890094 -0.0014644089157351305" pbc="T T T"
Ni      -0.00153246       0.02518974       0.10781531        1       1.00000000       0.09227258      -0.01703194      -0.08575537
Ni       2.52815953       0.01785396       0.13443363        1       1.00000000      -0.07623345       0.07119072      -0.06095461
Pt       5.13003146      -0.01930172       0.05921366        1       0.00000000      -0.04469338       0.18983227      -0.93571515
Ni       7.73390564      -0.02798426       0.09581410        1       1.00000000      -0.05614657      -0.11919720      -0.22342846
Ni       1.24329928       2.23561645       0.04389096        0       1.00000000      -0.09863508       0.03062048       0.45172138
Pt       3.77040810       2.29011456       0.12326833        1       0.00000000       0.02448905       0.00198183      -0.51599983
Pt       6.46472742       2.23429258       0.04330785        0       0.00000000      -0.00573455      -0.00565752      -0.05133813
Ni       9.03522502       2.23680470       0.06702049        1       1.00000000       0.08041006       0.14854166      -0.03852526
Ni       2.56112436       4.48816170       0.00974188        0       1.00000000       0.08761650       0.00188327       0.24209191
Ni       5.10568995       4.48844809       0.12045869        1       1.00000000      -0.05668277       0.09314856       0.07826656
Pt       7.77908962       4.47790655       0.03934839        0       0.00000000       0.02738487       0.06213608       0.00793661
Ni      10.30868047       4.45055015       0.00286315        0       1.00000000       0.05365551      -0.09099306       0.29612764
Ni       3.81769378       6.67694782       0.05303272        1       1.00000000      -0.00826773      -0.02700174       0.45188541
Pt       6.38055662       6.73016507       0.12182895        1       0.00000000      -0.08848668       0.05908036      -0.33832243
Ni       9.00078398       6.67303589       0.10156570        1       1.00000000      -0.11644548      -0.05760093      -0.31323454
Ni      11.59447992       6.66106015       0.00000000        0       1.00000000       0.05892686       0.07107607       0.19947570
Ni       1.28651277       0.74885206       2.12004753        2       1.00000000      -0.01826971       0.01118266       0.04796101
Ni       3.82408992       0.77553575       2.15257217        3       1.00000000       0.02256713       0.00754051       0.19417952
Ni       6.41898335       0.79716876       2.16972649        3       1.00000000      -0.05369262       0.19569337       0.26789315
Pt       9.00039624       0.79154437       2.10952570        2       0.00000000       0.00656518       0.09164213       0.12579685
Ni       2.55572796       2.97970323       2.16819543        3       1.00000000       0.03458716       0.02643466       0.03859310
Ni       5.12434261       3.00004140       2.17726591        3       1.00000000      -0.07646769       0.03242107       0.16600336
Ni       7.71742674       2.99946792       2.17468234        3       1.00000000       0.05289714       0.04986636       0.21887878
Ni      10.27141218       2.97874458       2.13152448        2       1.00000000       0.04961211      -0.00768368       0.13308944
Ni       3.89015379       5.19989074       2.15569489        3       1.00000000       0.14527738      -0.01595627       0.11333469
Ni       6.40576768       5.20834200       2.17605525        3       1.00000000      -0.03445280       0.04514665       0.14165318
Ni       8.95758584       5.17428716       2.16501626        3       1.00000000      -0.09923702      -0.20333496       0.25074757
Pt      11.61581911       5.13826830       2.09341245        2       0.00000000       0.12513110      -0.09684811       0.06272027
Ni       5.13862040       7.40533986       2.17688673        3       1.00000000       0.00684865      -0.11885618       0.14476661
Ni       7.66080653       7.43265092       2.16142629        3       1.00000000      -0.15450137      -0.02115649       0.19560217
Pt      10.25631217       7.38497828       2.12824821        2       0.00000000       0.00064535      -0.11759315      -0.23576003
Ni      12.88019052       7.41098921       2.09124894        2       1.00000000       0.14350508      -0.10442169       0.01963456
Ni      -0.01672327       1.53945094       4.28560645        5       1.00000000      -0.10510177       0.05716958      -0.18239725
Pt       2.48924959       1.56793631       4.18849321        4       0.00000000      -0.06087344      -0.06479028       0.02682596
Ni       5.14110400       1.54156868       4.24689363        4       1.00000000      -0.04370636       0.04172512      -0.38194499
Ni       7.70857569       1.53251930       4.27056365        5       1.00000000       0.06538845      -0.04702465      -0.25686833
Ni       1.28266216       3.70646232       4.33683160        5       1.00000000       0.03476774      -0.06307237      -0.04966308
Ni       3.82784495       3.77519866       4.24672479        4       1.00000000      -0.02939873       0.08825673      -0.34571609
Pt       6.43017360       3.72523352       4.22758140        4       0.00000000      -0.04609750       0.01343642       0.00684486
Ni       8.98794369       3.70548135       4.25482639        5       1.00000000       0.00970375      -0.11616671      -0.34466048
Ni       2.60741907       5.89159290       4.33420932        5       1.00000000       0.14538400      -0.13832967      -0.10125636
Ni       5.11945916       5.92506345       4.23943277        4       1.00000000       0.04081996      -0.15814928      -0.37718184
Ni       7.67371634       5.92615061       4.24542100        4       1.00000000      -0.05821066      -0.05079825      -0.39949930
Pt      10.28844896       5.83556573       4.30637631        5       0.00000000       0.05944750      -0.04953772       0.10324794
Pt       3.92288795       8.11571584       4.26199278        5       0.00000000       0.13236119      -0.09008541       0.11192359
Ni       6.40632181       8.16181848       4.23837351        4       1.00000000      -0.05289496      -0.01205384      -0.40976469
Pt       8.90242769       8.17351758       4.22960600        4       0.00000000      -0.11951916      -0.01381547      -0.05901925
Pt      11.60086203       8.19201576       4.22241607        4       0.00000000       0.06626492      -0.05081738      -0.04251941
Pt      -0.01180073       0.04835639       6.48821636        7       0.00000000       0.00758740       0.18230107       0.18148634
Pt       2.53648419       0.04592327       6.50613706        7       0.00000000       0.06709416      -0.13276116       0.37499079
Pt       5.14279964       0.03327036       6.38234243        6       0.00000000      -0.04588721       0.12978770       0.98658266
Pt       7.69759056      -0.00651716       6.49975458        7       0.00000000       0.04446433       0.19912928       0.26089006
Ni       1.26015449       2.31221685       6.44723314        6       1.00000000      -0.02527407       0.13840824      -0.26165955
Pt       3.80117248       2.31383897       6.38230754        6       0.00000000       0.05750557       0.11713326       0.43869586
Ni       6.42666982       2.26860753       6.36358513        6       1.00000000      -0.04973016      -0.03703903       0.06395771
Pt       8.98745652       2.35145779       6.41898781        6       0.00000000      -0.05140531      -0.07205595      -0.04590431
Ni       2.50826393       4.50517697       6.43694245        6       1.00000000      -0.04571427       0.00849120      -0.38907977
Pt       5.09015757       4.48726411       6.46221085        7       0.00000000      -0.12642829       0.00743041      -0.05006949
Ni       7.69894919       4.45551495       6.36605319        6       1.00000000      -0.04341704       0.06081628      -0.00296775
Ni      10.32310279       4.44943188       6.44930011        6       1.00000000       0.12900256      -0.04800496      -0.14862454
Ni       3.79766606       6.65395281       6.45690200        7       1.00000000      -0.07305302      -0.04741669      -0.28079312
Pt       6.39505748       6.66693712       6.35186368        6       0.00000000       0.06839946       0.02463287       0.36378473
Pt       9.02916940       6.58676888       6.50754891        7       0.00000000      -0.02829250      -0.04931059       0.34538493
Ni      11.59640939       6.64046997       6.45716753        7       1.00000000       0.05236865      -0.01357455      -0.18435150
