64
Lattice="10.30057163736806 0.009353896587826331 0.008443133279447746 5.158386530753461 8.895522439987495 0.002278650450634768 0.0 0.0 21.530236000998965" Properties=species:S:1:pos:R:3:tags:I:1:initial_magmoms:R:1:forces:R:3 unique_id=f2e91b3b01cf435f98a89f3880fb726d energy=-375.00153594287127 stress="0.005629130837724179 0.00023414308467036002 0.00030174458457637716 0.00023414308467036002 0.005708617908648985 4.061741143219527e-05 0.00030174458457637716 4.061741143219527e-05 -0.0018996714442887364" pbc="T T T"
Ni      -0.01923217       0.02813699       0.13978213        1       1.00000000      -0.03718039       0.00793278      -0.03164280
Ni       2.57487708       0.00611754       0.14846453        1       1.00000000      -0.00181484       0.02793818      -0.14887309
Ni       5.15427815      -0.00653328       0.10639973        1       1.00000000       0.01000895       0.23019718      -0.40286689
Ni       7.75118198      -0.03151425       0.05913867        1       1.00000000       0.03094423      -0.06318370       0.38656219
Ni       1.27074516       2.21803575       0.02639076        0       1.00000000       0.02092440      -0.06847506       0.26589079
Pt       3.80739297       2.23467653       0.13124495        1       0.00000000       0.03932765       0.00338438      -0.55980518
Pt       6.47013190       2.17072798       0.13546332        1       0.00000000      -0.00936095      -0.05183171      -0.48366926
Ni       9.03822303       2.19031022       0.08923459        1       1.00000000      -0.08474200      -0.11521280      -0.07942204
Ni       2.57939310       4.46919138       0.01412620        0       1.00000000       0.12316259       0.01788024       0.20492751
Ni       5.12511238       4.46684933       0.12842834        1       1.00000000      -0.03622550       0.02530679       0.05249480
Pt       7.80244771       4.46181816       0.04596111        0       0.00000000       0.00140400      -0.03695518       0.01935610
Ni      10.34110672       4.46451836       0.00000000        0       1.00000000       0.05929448       0.03629599       0.19467322
Ni       3.83788729       6.67567400       0.13147501        1       1.00000000      -0.03226380      -0.02622973       0.06459138
Pt       6.41579665       6.72154687       0.13328932        1       0.00000000      -0.09476972       0.03693552      -0.50995105
Ni       9.04485606       6.69040918       0.01589735        0       1.00000000      -0.08612575      -0.02386975       0.13899088
Ni      11.61705278       6.68670475       0.00310546        0       1.00000000       0.15153338       0.04740320       0.18647914
Ni       1.28528208       0.72619697       2.09034566        2       1.00000000      -0.04043633      -0.02360207      -0.03038745
Ni       3.86370272       0.74986176       2.14550591        2       1.00000000       0.10624494       0.00217929       0.16200905
Ni       6.46710321       0.75100292       2.18532971        3       1.00000000       0.07886229       0.08599730       0.23643663
Ni       8.99158099       0.72910614       2.12047630        2       1.00000000      -0.10601074      -0.00092837       0.04423226
Ni       2.59242047       2.98113802       2.15549451        3       1.00000000       0.04231452       0.14780066       0.09148597
Ni       5.13749812       2.98464516       2.18308198        3       1.00000000      -0.12292949       0.01934981       0.18991143
Ni       7.73361119       2.95687427       2.18058920        3       1.00000000       0.03421185      -0.04881078       0.17114384
Pt      10.26957725       2.92098821       2.12816080        2       0.00000000       0.03132841       0.04761872       0.01585979
Ni       3.90837474       5.19225000       2.15141159        3       1.00000000       0.13717306      -0.02882569       0.14537912
Ni       6.42718187       5.19539142       2.16937621        3       1.00000000      -0.04235932       0.07041116       0.13582696
Ni       8.99218529       5.19979779       2.18758556        3       1.00000000      -0.06484468      -0.04857098       0.23213821
Pt      11.65977220       5.20749258       2.10784755        2       0.00000000       0.09495567      -0.01988897       0.00260702
Ni       5.11744900       7.40612393       2.13261725        2       1.00000000      -0.12503122      -0.11427707       0.01016716
Ni       7.73311804       7.40945414       2.13787351        2       1.00000000       0.06942075      -0.11648520       0.04436608
Pt      10.29173459       7.42779257       2.06293353        2       0.00000000       0.02188825      -0.06578058      -0.05754511
Ni      12.92164361       7.43561502       2.10281116        2       1.00000000       0.00876072       0.03406335      -0.02905830
Ni      -0.02322408       1.50683456       4.27454586        5       1.00000000      -0.04585615      -0.01622786      -0.20391191
Pt       2.57576678       1.52122125       4.17915541        4       0.00000000      -0.04878125      -0.00526901      -0.05968647
Ni       5.16856623       1.50362870       4.24348847        4       1.00000000      -0.01390153       0.05305976      -0.37172461
Ni       7.75741650       1.50538844       4.24366720        4       1.00000000       0.07704783       0.06359383      -0.34843654
Pt       1.26588472       3.76220042       4.36618260        6       0.00000000      -0.02685955      -0.03499482       0.05506131
Ni       3.87770210       3.75651449       4.24148724        4       1.00000000       0.02753262       0.07258324      -0.30231961
Pt       6.46670753       3.73270153       4.18636699        4       0.00000000      -0.04694330       0.00289586       0.04956895
Ni       9.01339795       3.73956791       4.29143811        5       1.00000000      -0.03300813       0.02708566      -0.25331967
Ni       2.59627057       5.90102152       4.29078035        5       1.00000000       0.10860743       0.00160953      -0.17407829
Ni       5.13026183       5.90112007       4.23597495        4       1.00000000      -0.08432006      -0.02411557      -0.36233641
Ni       7.77790322       5.88024458       4.26267585        5       1.00000000       0.05695031      -0.05577755      -0.28151201
Ni      10.28598445       5.90762585       4.34197119        5       1.00000000      -0.03270719       0.03148111      -0.11960598
Pt       3.86308676       8.16314445       4.20185890        4       0.00000000       0.02276057       0.04750103      -0.02615569
Pt       6.42563252       8.11449799       4.16463002        4       0.00000000      -0.04672397      -0.08750305      -0.15325042
Pt       9.02350249       8.09414448       4.26975643        5       0.00000000      -0.06197092      -0.01938923       0.03445221
Pt      11.62747728       8.14530240       4.27686993        5       0.00000000      -0.00092161      -0.02465625       0.04942442
Pt      -0.02574001       0.03605168       6.50145677        8       0.00000000       0.03061024       0.04527774       0.13657855
Pt       2.57989104      -0.00053738       6.53023600        8       0.00000000       0.04550754      -0.04586484       0.39077809
Pt       5.20132603      -0.09071129       6.52007868        8       0.00000000      -0.09479580       0.12454019       0.44972768
Ni       7.72728209      -0.00197609       6.46237646        8       1.00000000       0.03104608       0.09904700      -0.10143985
Ni       1.27992680       2.27505769       6.45745445        8       1.00000000      -0.01918567      -0.02323719      -0.07369456
Pt       3.81262869       2.27303608       6.39231337        7       0.00000000       0.20748607      -0.09585191       0.56093519
Pt       6.48732754       2.20365984       6.37847575        7       0.00000000      -0.04794425      -0.05058648       0.54094747
Pt       9.06817265       2.32296831       6.43472955        7       0.00000000       0.00646270       0.12214204      -0.01871534
Ni       2.51300191       4.46073022       6.44917551        7       1.00000000      -0.02359526       0.06713556      -0.08006914
Pt       5.13410129       4.45922191       6.45496817        8       0.00000000      -0.05754195       0.05755133       0.17312182
Ni       7.79333493       4.47117650       6.36047569        7       1.00000000       0.08415582       0.04816807      -0.00701658
Ni      10.31374584       4.50510352       6.45045048        8       1.00000000      -0.08386257       0.11261122      -0.17582956
Pt       3.75108420       6.66005684       6.47483863        8       0.00000000       0.09883190      -0.11252769      -0.03034402
Pt       6.51148734       6.61716475       6.38319038        7       0.00000000      -0.09113392      -0.06737760       0.45234233
Ni       9.06626637       6.59483934       6.44203969        7       1.00000000       0.00937969      -0.12095718      -0.18667422
Ni      11.56433337       6.61375768       6.45315438        8       1.00000000      -0.12399113      -0.17971382      -0.22512553
