101
Lattice="13.791587736635215 -1.8112103385096306e-07 5.378664298030767e-07 6.895793711462199 11.943865620083509 -5.369412600478491e-07 0.0 0.0 37.15138878154366" Properties=species:S:1:pos:R:3:tags:I:1:initial_magmoms:R:1:forces:R:3 energy=-583.7552490234375 free_energy=-583.7552490234375 stress="0.00910490491928161 6.775674047603733e-06 3.363247470415603e-05 6.775674047603733e-06 0.0090970849972024 1.942033976366894e-05 3.363247470415603e-05 1.942033976366894e-05 0.0010309812984938347" pbc="T T T"
Pt       0.00000009       0.00000010       0.00000050        0       0.00000000      -0.00030048      -0.00017349       0.13135824
Pt       2.75831763       0.00000006       0.00000053        0       0.00000000      -0.00089625      -0.00055528       0.13210356
Pt       5.51663515      -0.00000014       0.00000071        0       0.00000000       0.00195109       0.00268734       0.13482729
Pt       8.27495278      -0.00000004       0.00000082        0       0.00000000       0.00006161       0.00006506       0.13015172
Pt      11.03327025      -0.00000010       0.00000087        0       0.00000000      -0.00220206       0.00262000       0.13391206
Pt       1.37915882       2.38877325       0.00000031        0       0.00000000      -0.00093106      -0.00049890       0.13210338
Pt       4.13747636       2.38877307       0.00000042        0       0.00000000      -0.00680018      -0.00392581       0.12030610
Pt       6.89579384       2.38877307       0.00000072        0       0.00000000      -0.00493950       0.00116991       0.13274711
Pt       9.65411145       2.38877301       0.00000079        0       0.00000000       0.00508630       0.00102598       0.13131958
Pt      12.41242897       2.38877302       0.00000074        0       0.00000000       0.00584189      -0.00390506       0.11873376
Pt       2.75831757       4.77754637       0.00000030        0       0.00000000       0.00330253       0.00034527       0.13482562
Pt       5.51663503       4.77754616       0.00000039        0       0.00000000      -0.00145425      -0.00486073       0.13274732
Pt       8.27495256       4.77754613       0.00000040        0       0.00000000       0.00007200       0.00004546       0.16123240
Pt      11.03327011       4.77754616       0.00000064        0       0.00000000       0.00114330      -0.00503288       0.13058785
Pt      13.79158766       4.77754604       0.00000062        0       0.00000000      -0.00382961       0.00065136       0.13454977
Pt       4.13747629       7.16631935       0.00000003        0       0.00000000       0.00009328       0.00001983       0.13015014
Pt       6.89579371       7.16631933       0.00000023        0       0.00000000       0.00343056       0.00389525       0.13131976
Pt       9.65411137       7.16631934       0.00000033        0       0.00000000      -0.00378647       0.00350644       0.13058835
Pt      12.41242886       7.16631934       0.00000052        0       0.00000000      -0.00016433      -0.00009238       0.12975591
Pt      15.17074637       7.16631925       0.00000049        0       0.00000000      -0.00001572      -0.00006270       0.13105595
Pt       5.51663495       9.55509252       0.00000000        0       0.00000000       0.00117469      -0.00321959       0.13391468
Pt       8.27495257       9.55509239       0.00000014        0       0.00000000      -0.00046439       0.00700905       0.11873323
Pt      11.03327014       9.55509235       0.00000017        0       0.00000000      -0.00135077      -0.00364424       0.13455087
Pt      13.79158763       9.55509238       0.00000047        0       0.00000000      -0.00006278       0.00001907       0.13105625
Pt      16.54990513       9.55509229       0.00000038        0       0.00000000       0.00002392       0.00002147       0.13136435
Pt       1.37915871       0.79625751       2.38854620        1       0.00000000       0.00231716       0.00133888      -0.15956609
Pt       4.13747621       0.79625759       2.38854657        1       0.00000000       0.00645291       0.00959408      -0.15438117
Pt       6.89579369       0.79625747       2.38854643        1       0.00000000      -0.00687124       0.00026248      -0.17827314
Pt       9.65411133       0.79625730       2.38854679        1       0.00000000       0.00515195      -0.00244970      -0.18085089
Pt      12.41242891       0.79625740       2.38854668        1       0.00000000      -0.00314039       0.00573326      -0.15528728
Pt       2.75831728       3.18503037       2.38854627        1       0.00000000       0.01154388       0.00079046      -0.15438277
Pt       5.51663489       3.18503067       2.38854644        1       0.00000000       0.03023026       0.01745539      -0.15291011
Pt       8.27495261       3.18503085       2.38854636        1       0.00000000      -0.00338941       0.08223704      -0.03685421
Pt      11.03327032       3.18503042       2.38854670        1       0.00000000      -0.03070354       0.01457405      -0.16375443
Pt      13.79158776       3.18503064       2.38854676        1       0.00000000      -0.00309218      -0.00174291      -0.15879458
Pt       4.13747609       5.57380380       2.38854634        1       0.00000000      -0.00320047      -0.00608452      -0.17826617
Pt       6.89579384       5.57380384       2.38854617        1       0.00000000       0.06952515      -0.04405315      -0.03685371
Pt       9.65411142       5.57380378       2.38854628        1       0.00000000      -0.07485335      -0.04321809      -0.04913339
Pt      12.41242912       5.57380366       2.38854642        1       0.00000000       0.00978627      -0.00458038      -0.19079605
Pt      15.17074656       5.57380372       2.38854658        1       0.00000000       0.00165673       0.00182594      -0.16178380
Pt       5.51663498       7.96257672       2.38854615        1       0.00000000       0.00045264       0.00568774      -0.18085246
Pt       8.27495261       7.96257687       2.38854597        1       0.00000000      -0.00273762      -0.03387940      -0.16375306
Pt      11.03327016       7.96257699       2.38854653        1       0.00000000       0.00092844       0.01076535      -0.19079982
Pt      13.79158772       7.96257660       2.38854616        1       0.00000000       0.00128836       0.00074674      -0.15004577
Pt      16.54990518       7.96257671       2.38854636        1       0.00000000      -0.00019287       0.00043151      -0.14986625
Pt       6.89579364      10.35134986       2.38854591        1       0.00000000       0.00339652      -0.00558815      -0.15529004
Pt       9.65411124      10.35134989       2.38854587        1       0.00000000      -0.00304754      -0.00180358      -0.15879661
Pt      12.41242889      10.35134988       2.38854639        1       0.00000000       0.00241138       0.00052258      -0.16178572
Pt      15.17074648      10.35134982       2.38854620        1       0.00000000       0.00027702      -0.00038075      -0.14986487
Pt      17.92906403      10.35134982       2.38854660        1       0.00000000      -0.00243083      -0.00140657      -0.16042711
Pt       0.00330405       1.59143016       4.72761741        2       0.00000000      -0.00476827       0.00686607       0.00656416
Pt       2.76015983       1.59357790       4.72828934        2       0.00000000       0.00627796       0.00363355       0.00684430
Pt       5.52003394       1.59908710       4.72574015        2       0.00000000       0.00901039       0.00574092       0.00687546
Pt       8.27550887       1.58712992       4.71749520        2       0.00000000       0.00518347       0.00330293       0.01448201
Pt      11.03361178       1.59661656       4.72336217        2       0.00000000      -0.00554951       0.00811136       0.01070996
Pt       1.38278527       3.97883411       4.72624318        2       0.00000000      -0.00134874       0.00505233       0.00764556
Pt       4.14486730       3.98094581       4.72574081        2       0.00000000       0.00947432       0.00493577       0.00686865
Pt       6.91724185       3.99367136       4.77725406        2       0.00000000       0.00547236       0.00315882      -0.00333607
Pt       9.63561239       3.99307432       4.77332561        2       0.00000000       0.00116390       0.00308733       0.00335409
Pt      12.41191125       3.97842306       4.72140961        2       0.00000000      -0.01224018       0.01000430       0.01519354
Pt       2.75722263       6.36970772       4.72876680        2       0.00000000       0.00645974       0.00037166       0.00485058
Pt       5.51225020       6.37323586       4.71749448        2       0.00000000       0.00544039       0.00283038       0.01447952
Pt       8.27591106       6.34814797       4.77332515        2       0.00000000       0.00325101      -0.00054051       0.00335234
Pt      11.04057340       6.37427723       4.71262646        2       0.00000000      -0.00016491      -0.00009252       0.02438247
Pt      13.79558041       6.36918432       4.72836823        2       0.00000000       0.00065111       0.00272733       0.00216398
Pt       4.13712246       8.76109118       4.72890792        2       0.00000000       0.00349414      -0.00007790       0.00302139
Pt       6.89951716       8.75707986       4.72336302        2       0.00000000       0.00425269      -0.00886053       0.01070233
Pt       9.65137093       8.75981826       4.72140898        2       0.00000000       0.00254448      -0.01559778       0.01519515
Pt      12.41366632       8.76272971       4.72836806        2       0.00000000       0.00268848      -0.00078904       0.00215894
Pt      15.17095671       8.75895662       4.73043651        2       0.00000000       0.00306402       0.00176551       0.00600058
Pt       5.51882937      11.14887367       4.72622855        2       0.00000000       0.00048832       0.00028945       0.00755294
Pt       8.27566486      11.15101211       4.72761345        2       0.00000000       0.00355955      -0.00757645       0.00659175
Pt      11.03295764      11.15197402       4.72624511        2       0.00000000       0.00369271      -0.00368998       0.00762767
Pt      13.79073370      11.14683795       4.72876631        2       0.00000000       0.00356805       0.00539115       0.00484972
Pt      16.55168449      11.14617309       4.72890856        2       0.00000000       0.00165777       0.00306401       0.00302032
Pt       0.00369200       0.00213128       7.08843152        3       0.00000000       0.00165501       0.00094971       0.00110802
Pt       2.76053671       0.00483078       7.08816711        3       0.00000000       0.00379830      -0.00302730       0.00245005
Pt       5.51595574      -0.00313008       7.08461659        3       0.00000000       0.00248240      -0.00526551       0.00755394
Pt       8.27793993      -0.00575494       7.08222283        3       0.00000000       0.00326997       0.01496738       0.01097342
Pt      11.04103031      -0.00895808       7.08374017        3       0.00000000       0.00112520       0.00638583       0.00747496
Pt       1.38445242       2.38827898       7.08816588        3       0.00000000      -0.00072351       0.00480690       0.00245404
Pt       4.13784688       2.38898714       7.08115761        3       0.00000000       0.00408977       0.00236199       0.01445627
Pt       6.89490623       2.37003899       7.06946037        3       0.00000000      -0.00654690       0.00759336       0.01201189
Pt       9.66927514       2.36544933       7.06318312        3       0.00000000       0.00088316       0.01293303       0.02473006
Pt      12.42445041       2.38543131       7.07792402        3       0.00000000      -0.00844771       0.00734190       0.01634702
Pt       2.75526630       4.77852255       7.08461810        3       0.00000000      -0.00331135       0.00478485       0.00754294
Pt       5.49996734       4.78614388       7.06946011        3       0.00000000       0.00329749      -0.00946466       0.01201600
Pt       8.29053991       4.78654520       7.32444781        3       0.00000000      -0.02415340      -0.01394598      -0.01596355
Pt      11.07097374       4.78566485       7.05652114        3       0.00000000      -0.01496312      -0.00879038       0.03760666
Pt      13.81128574       4.77805106       7.08290749        3       0.00000000      -0.01187495       0.00593413       0.00727707
Pt       4.13398649       7.17178308       7.08222219        3       0.00000000       0.01459847      -0.00465422       0.01097628
Pt       6.88317707       7.19111264       7.06318299        3       0.00000000       0.01164330      -0.00569556       0.02473387
Pt       9.67999449       7.19491298       7.05652087        3       0.00000000      -0.01509783      -0.00857050       0.03760836
Pt      12.42713082       7.17480740       7.07901713        3       0.00000000      -0.01622504      -0.00937040       0.01344252
Pt      15.17569948       7.16929201       7.08928513        3       0.00000000      -0.00076856      -0.00026634       0.00127095
Pt       5.51275731       9.56629208       7.08373917        3       0.00000000       0.00610290      -0.00221997       0.00747910
Pt       8.27807025       9.56717484       7.07792554        3       0.00000000       0.00212702      -0.01098490       0.01633385
Pt      11.04355613       9.57189904       7.08290544        3       0.00000000      -0.00079602      -0.01325465       0.00728723
Pt      13.79663903       9.55789518       7.08928437        3       0.00000000      -0.00062068      -0.00053658       0.00127140
Pt      16.55006344       9.55518306       7.08920995        3       0.00000000       0.00702740       0.00405805       0.00207269
O        8.31766266       4.80220426       9.13534216        0       0.00000000      -0.02263750      -0.01306693      -0.02229237
