101
Lattice="13.791587736635215 -1.8112103385096306e-07 5.378664298030767e-07 6.895793711462199 11.943865620083509 -5.369412600478491e-07 0.0 0.0 37.15138878154366" Properties=species:S:1:pos:R:3:tags:I:1:initial_magmoms:R:1:forces:R:3 energy=-584.346435546875 free_energy=-584.346435546875 stress="0.009091731587177672 -4.556574683015868e-05 -1.8386899288947864e-05 -4.556574683015868e-05 0.009144372832382626 -1.062322823997785e-05 -1.8386899288947864e-05 -1.062322823997785e-05 0.001405974742929202" pbc="T T T"
Pt       0.00000009       0.00000010       0.00000050        0       0.00000000       0.00103567       0.00059722       0.13508546
Pt       2.75831763       0.00000006       0.00000053        0       0.00000000       0.00075764       0.00683569       0.12147081
Pt       5.51663515      -0.00000014       0.00000071        0       0.00000000      -0.00175697      -0.00077884       0.13065019
Pt       8.27495278      -0.00000004       0.00000082        0       0.00000000       0.00058095       0.00150504       0.13405535
Pt      11.03327025      -0.00000010       0.00000087        0       0.00000000       0.00057383       0.00007270       0.13174829
Pt       1.37915882       2.38877325       0.00000031        0       0.00000000       0.00629682      -0.00276144       0.12147027
Pt       4.13747636       2.38877307       0.00000042        0       0.00000000       0.00017173       0.00009772       0.13158563
Pt       6.89579384       2.38877307       0.00000072        0       0.00000000      -0.00241055      -0.00081280       0.12651905
Pt       9.65411145       2.38877301       0.00000079        0       0.00000000      -0.00442813       0.00025283       0.13063562
Pt      12.41242897       2.38877302       0.00000074        0       0.00000000       0.00164060       0.00361623       0.13877523
Pt       2.75831757       4.77754637       0.00000030        0       0.00000000      -0.00155247      -0.00113269       0.13064882
Pt       5.51663503       4.77754616       0.00000039        0       0.00000000      -0.00190686      -0.00167832       0.12651843
Pt       8.27495256       4.77754613       0.00000040        0       0.00000000      -0.00522327      -0.00301168       0.12803084
Pt      11.03327011       4.77754616       0.00000064        0       0.00000000       0.00297657       0.00041589       0.15045637
Pt      13.79158766       4.77754604       0.00000062        0       0.00000000       0.00481574      -0.00534417       0.12838158
Pt       4.13747629       7.16631935       0.00000003        0       0.00000000       0.00159918      -0.00025200       0.13405511
Pt       6.89579371       7.16631933       0.00000023        0       0.00000000      -0.00199615      -0.00395853       0.13063508
Pt       9.65411137       7.16631934       0.00000033        0       0.00000000       0.00184850       0.00236903       0.15045601
Pt      12.41242886       7.16631934       0.00000052        0       0.00000000       0.00120177       0.00069497       0.12955421
Pt      15.17074637       7.16631925       0.00000049        0       0.00000000      -0.00210528      -0.00083090       0.13291052
Pt       5.51663495       9.55509252       0.00000000        0       0.00000000       0.00035797       0.00045725       0.13174954
Pt       8.27495257       9.55509239       0.00000014        0       0.00000000       0.00394744      -0.00039037       0.13877431
Pt      11.03327014       9.55509235       0.00000017        0       0.00000000      -0.00221977       0.00684151       0.12838176
Pt      13.79158763       9.55509238       0.00000047        0       0.00000000      -0.00177174      -0.00140660       0.13290963
Pt      16.54990513       9.55509229       0.00000038        0       0.00000000      -0.00021497      -0.00011620       0.13143316
Pt       1.37915871       0.79625751       2.38854620        1       0.00000000      -0.00429309      -0.00248221      -0.14018708
Pt       4.13747621       0.79625759       2.38854657        1       0.00000000      -0.00461650      -0.00973205      -0.14235836
Pt       6.89579369       0.79625747       2.38854643        1       0.00000000       0.00406252       0.00370846      -0.14584544
Pt       9.65411133       0.79625730       2.38854679        1       0.00000000      -0.00230012       0.00627780      -0.14935240
Pt      12.41242891       0.79625740       2.38854668        1       0.00000000       0.00070220       0.00402060      -0.15797609
Pt       2.75831728       3.18503037       2.38854627        1       0.00000000      -0.01073239       0.00086615      -0.14235814
Pt       5.51663489       3.18503067       2.38854644        1       0.00000000       0.00485856       0.00280426      -0.14331996
Pt       8.27495261       3.18503085       2.38854636        1       0.00000000       0.01743842       0.00081995      -0.16958161
Pt      11.03327032       3.18503042       2.38854670        1       0.00000000       0.01782642       0.05467457      -0.06852985
Pt      13.79158776       3.18503064       2.38854676        1       0.00000000      -0.03772158       0.02425937      -0.11813290
Pt       4.13747609       5.57380380       2.38854634        1       0.00000000       0.00524936       0.00166363      -0.14585111
Pt       6.89579384       5.57380384       2.38854617        1       0.00000000       0.00943103       0.01468973      -0.16958210
Pt       9.65411142       5.57380378       2.38854628        1       0.00000000       0.05209935       0.03007693      -0.00172374
Pt      12.41242912       5.57380366       2.38854642        1       0.00000000      -0.05562469      -0.02427403      -0.02948481
Pt      15.17074656       5.57380372       2.38854658        1       0.00000000      -0.01677042      -0.00081940      -0.14298074
Pt       5.51663498       7.96257672       2.38854615        1       0.00000000       0.00428382      -0.00512691      -0.14935711
Pt       8.27495261       7.96257687       2.38854597        1       0.00000000       0.05625802      -0.01189979      -0.06852864
Pt      11.03327016       7.96257699       2.38854653        1       0.00000000      -0.04883348      -0.03603635      -0.02948401
Pt      13.79158772       7.96257660       2.38854616        1       0.00000000      -0.01230095      -0.00710105      -0.15657273
Pt      16.54990518       7.96257671       2.38854636        1       0.00000000      -0.00087975      -0.00117015      -0.14995334
Pt       6.89579364      10.35134986       2.38854591        1       0.00000000       0.00383515      -0.00140043      -0.15797994
Pt       9.65411124      10.35134989       2.38854587        1       0.00000000       0.00215112      -0.04479527      -0.11813420
Pt      12.41242889      10.35134988       2.38854639        1       0.00000000      -0.00909085      -0.01411194      -0.14298335
Pt      15.17074648      10.35134982       2.38854620        1       0.00000000      -0.00145621      -0.00017662      -0.14995256
Pt      17.92906403      10.35134982       2.38854660        1       0.00000000       0.00173189       0.00099822      -0.14080636
Pt      -0.00244162       1.59632009       4.72784252        2       0.00000000       0.00164605      -0.00151494       0.00034764
Pt       2.75581671       1.59107149       4.72856813        2       0.00000000       0.00195207       0.00112758       0.00196898
Pt       5.51395865       1.59162595       4.72799992        2       0.00000000       0.00193834      -0.00107458       0.00090317
Pt       8.27560052       1.59601286       4.73076003        2       0.00000000      -0.00048302      -0.00107892       0.00021361
Pt      11.03217844       1.58908941       4.72740098        2       0.00000000       0.00050593      -0.00294883      -0.00026238
Pt       1.37314137       3.98076515       4.72797907        2       0.00000000       0.00147667       0.00092080      -0.00037229
Pt       4.13536817       3.97941523       4.72799944        2       0.00000000       0.00004327       0.00221145       0.00090660
Pt       6.89783473       3.98246604       4.72212261        2       0.00000000      -0.00139150      -0.00079325      -0.00019531
Pt       9.66696854       3.98391982       4.75008977        2       0.00000000       0.00068776      -0.00289516      -0.00821967
Pt      12.39480993       3.99089211       4.77321532        2       0.00000000      -0.00070773      -0.00414737      -0.00959627
Pt       2.75977367       6.36804407       4.72839689        2       0.00000000      -0.00297973       0.00125687       0.00074850
Pt       5.51998761       6.36887401       4.73075934        2       0.00000000      -0.00115834       0.00010947       0.00022162
Pt       8.28366072       6.37987985       4.75008911        2       0.00000000      -0.00217239       0.00204660      -0.00821590
Pt      11.02619281       6.36597514       4.79190356        2       0.00000000       0.00675685       0.00390831      -0.04035325
Pt      13.78934703       6.37193189       4.73131733        2       0.00000000      -0.00162440       0.00264645       0.00279143
Pt       4.13759554       8.75843160       4.73069075        2       0.00000000      -0.00006678      -0.00022554       0.00020990
Pt       6.89228105       8.75960241       4.72740022        2       0.00000000      -0.00229278       0.00190271      -0.00026131
Pt       9.65361909       8.73877400       4.77321489        2       0.00000000      -0.00393462       0.00145202      -0.00959530
Pt      12.41292913       8.75595838       4.73131717        2       0.00000000       0.00146761      -0.00273388       0.00279504
Pt      15.17358774       8.76047498       4.72871349        2       0.00000000       0.00007509       0.00003489      -0.00217086
Pt       5.51741739      11.14805893       4.73091185        2       0.00000000       0.00067101       0.00039862       0.00116560
Pt       8.27702702      11.14359027       4.72784237        2       0.00000000      -0.00048843       0.00219387       0.00035003
Pt      11.02980819      11.14265698       4.72797914        2       0.00000000       0.00153984       0.00082368      -0.00036828
Pt      13.79056806      11.14987689       4.72839710        2       0.00000000      -0.00040461      -0.00319433       0.00074773
Pt      16.54961624      11.14791313       4.73069075        2       0.00000000      -0.00022468       0.00006568       0.00021157
Pt      -0.00001326      -0.00000805       7.08616047        3       0.00000000       0.00199580       0.00115588       0.00177547
Pt       2.75810750       0.00559416       7.08699637        3       0.00000000       0.00083540       0.00001131       0.00038743
Pt       5.51934775       0.00872549       7.08821676        3       0.00000000       0.00265254      -0.00187768       0.00011483
Pt       8.27620055      -0.00130930       7.08888337        3       0.00000000       0.00019057       0.00004797      -0.00021872
Pt      11.03327379      -0.00194739       7.08998230        3       0.00000000       0.00046113       0.00022900       0.00047609
Pt       1.38389873       2.38579368       7.08699592        3       0.00000000       0.00042872       0.00071286       0.00038835
Pt       4.13486629       2.38726583       7.08965324        3       0.00000000       0.00363142       0.00209769      -0.00158495
Pt       6.88602635       2.37806577       7.08815841        3       0.00000000       0.00640205       0.00188576      -0.00091571
Pt       9.64919759       2.37598349       7.09055987        3       0.00000000       0.00551601       0.00494738      -0.00777870
Pt      12.41463120       2.37506321       7.08354890        3       0.00000000       0.00067543       0.00639204      -0.00525373
Pt       2.76723092       4.77553190       7.08821645        3       0.00000000      -0.00029958       0.00323477       0.00011408
Pt       5.50247925       4.77444070       7.08815883        3       0.00000000       0.00483490       0.00460155      -0.00091994
Pt       8.23573439       4.75490325       7.05047415        3       0.00000000       0.00575798       0.00332454      -0.00476685
Pt      11.05137263       4.74049423       7.24343373        3       0.00000000      -0.00862888       0.02248818      -0.03078707
Pt      13.82430026       4.77259426       7.09091981        3       0.00000000      -0.00367123      -0.00211656      -0.00519687
Pt       4.13696677       7.16805416       7.08888243        3       0.00000000       0.00013548       0.00014164      -0.00021687
Pt       6.88226130       7.16845817       7.09055992        3       0.00000000       0.00704080       0.00230320      -0.00778258
Pt       9.63107449       7.20052198       7.24343340        3       0.00000000       0.01515192      -0.01872063      -0.03079148
Pt      12.47243885       7.20096549       7.08782053        3       0.00000000      -0.01589956      -0.00918264       0.01151100
Pt      15.19227756       7.17239171       7.08669873        3       0.00000000      -0.00790691      -0.00141296      -0.00114349
Pt       5.51495074       9.55606826       7.08998195        3       0.00000000       0.00043465       0.00028686       0.00047794
Pt       8.26418090       9.56385434       7.08354846        3       0.00000000       0.00587243      -0.00261582      -0.00525331
Pt      11.04533841       9.58589765       7.09091968        3       0.00000000      -0.00367109      -0.00213205      -0.00519818
Pt      13.80761224       9.57070241       7.08669898        3       0.00000000      -0.00517755      -0.00614050      -0.00114366
Pt      16.55716186       9.55928209       7.09078309        3       0.00000000      -0.00385987      -0.00223292      -0.00177580
O       10.56908533       6.10206403       8.59656910        0       0.00000000       0.00873983       0.00506386      -0.01436274
