64
Lattice="10.453234891321951 0.0022268462688789744 0.0641566393751382 5.2285459511001475 9.095037410471749 0.002742289998229774 0.0 0.0 21.711844789823154" Properties=species:S:1:pos:R:3:tags:I:1:initial_magmoms:R:1:forces:R:3 unique_id=59ad0fdc60b7432f8eca75554c79717a energy=-385.0475869539734 stress="0.0044697784755513455 -0.00016090161897141042 0.00046617379645755313 -0.00016090161897141042 0.004673228401146744 -0.00024263497603371143 0.00046617379645755313 -0.00024263497603371143 -0.0031626722783917923" pbc="T T T"
Pt      -0.10405209      -0.02500321       0.06668783        1       0.00000000      -0.21535083      -0.13229815      -0.65137637
Ni       2.65131771      -0.03233763       0.00000000        0       1.00000000       0.05995045      -0.02202044       0.32038110
Ni       5.25145778      -0.04210621       0.08435440        1       1.00000000       0.14874576       0.04838654      -0.11197261
Ni       7.82462115      -0.03858413       0.06827865        1       1.00000000      -0.13720961      -0.15521670       0.52879091
Pt       1.28453041       2.30694396       0.01744390        0       0.00000000       0.03046548      -0.01151048      -1.11229002
Pt       3.95899346       2.27380676       0.04410276        0       0.00000000       0.21739728       0.07833586      -0.97836986
Pt       6.58467299       2.19896456       0.08770664        1       0.00000000      -0.14387555      -0.14598475      -0.14648082
Ni       9.13964373       2.26780313       0.03486504        0       1.00000000       0.05890204      -0.07199722       0.28052555
Ni       2.62764488       4.58447259       0.05391933        1       1.00000000       0.02365014      -0.01174678      -0.28905784
Ni       5.23793434       4.54900428       0.07706964        1       1.00000000       0.18977111      -0.09838659      -0.02829108
Pt       7.91687373       4.55577647       0.09501618        1       0.00000000       0.00217262       0.11558433      -0.04969983
Ni      10.46632171       4.58619229       0.01931686        0       1.00000000       0.05056820       0.12965031       0.29541213
Ni       3.88995865       6.82378883       0.07918651        1       1.00000000      -0.07755340       0.12969206      -0.00865201
Pt       6.55719863       6.82624950       0.13515599        1       0.00000000      -0.05232807      -0.02075828      -0.32300231
Ni       9.18040810       6.83255418       0.02450497        0       1.00000000       0.01837871      -0.05827127       0.44475916
Ni      11.78177361       6.83941678       0.09995703        1       1.00000000       0.15543019       0.08968166      -0.03420300
Pt       1.30823516       0.66899494       2.16189520        3       0.00000000       0.09473649      -0.11175837       0.23103053
Pt       4.00883732       0.73513168       2.19697077        3       0.00000000       0.06366609      -0.07426171       0.22055378
Ni       6.58564692       0.73440774       2.22123461        3       1.00000000       0.08064048      -0.07822697       0.16420679
Ni       9.09031328       0.73311116       2.22044633        3       1.00000000      -0.20455136       0.06348275       0.08356836
Pt       2.64694220       3.05820187       2.18391937        3       0.00000000      -0.03694435       0.08751084       0.39479107
Ni       5.27678276       3.03017625       2.21549871        3       1.00000000       0.06333612       0.04590123       0.30213762
Pt       7.78674657       3.01628906       2.32952731        4       0.00000000      -0.04399066      -0.03027237       0.19515882
Pt      10.36693064       3.05545899       2.20524271        3       0.00000000      -0.24298784       0.07058412       0.07312091
Pt       4.00876533       5.36234829       2.09129164        2       0.00000000       0.09486187       0.04334716       0.09597037
Ni       6.58944935       5.30232997       2.21624716        3       1.00000000       0.12423542      -0.04509486       0.30115997
Ni       9.12543265       5.33503124       2.25152744        4       1.00000000      -0.10086447       0.09695605       0.23106818
Pt      11.73949664       5.34585723       2.14958899        2       0.00000000      -0.01198965      -0.05237355       0.11516028
Ni       5.22469135       7.56571455       2.17170980        3       1.00000000      -0.01839005       0.00448880       0.27727722
Ni       7.86868966       7.51442382       2.20247107        3       1.00000000       0.09454067      -0.13415142       0.19938644
Pt      10.45681864       7.55475429       2.13368703        2       0.00000000      -0.06729323       0.01460589       0.07764750
Ni      13.09665158       7.63003030       2.17448413        3       1.00000000       0.01566756       0.14429821       0.00249011
Pt      -0.10811678       1.56269225       4.36384172        6       0.00000000      -0.24183988       0.11628878      -0.29924004
Pt       2.65753252       1.47053876       4.39863616        6       0.00000000      -0.06311658      -0.10202763      -0.23368709
Ni       5.31000541       1.51426470       4.38043706        6       1.00000000       0.06095678       0.03382476      -0.37197843
Ni       7.83571939       1.53532055       4.40770071        6       1.00000000      -0.07159749       0.03111366      -0.18953983
Pt       1.23445537       3.84618809       4.40055670        6       0.00000000      -0.05346151       0.13696482      -0.19041175
Pt       4.03872648       3.74434015       4.35086921        6       0.00000000       0.03023825       0.05628103      -0.19208819
Ni       6.60809917       3.75926260       4.40989708        6       1.00000000       0.02866400       0.02703528      -0.21960334
Ni       9.12705438       3.81735527       4.41914601        6       1.00000000      -0.09532700       0.05700054      -0.24964995
Pt       2.60641350       6.07301364       4.34263392        5       0.00000000       0.02560736      -0.00831212      -0.18060984
Pt       5.35295174       6.00871329       4.32688205        5       0.00000000       0.06901160      -0.09791648      -0.19926613
Ni       7.92367263       5.99364103       4.37229326        6       1.00000000       0.11124801      -0.13935410      -0.34568016
Ni      10.41238712       6.03017861       4.45748283        7       1.00000000      -0.08731327      -0.01754960      -0.10258901
Pt       3.91700574       8.35258453       4.29064610        5       0.00000000      -0.01117303      -0.03305376      -0.26034119
Pt       6.58260537       8.28123725       4.35515745        6       0.00000000      -0.00762463       0.05992605      -0.24374345
Pt       9.18374033       8.22648568       4.43725373        6       0.00000000       0.01171491      -0.09240837      -0.06769848
Pt      11.77815788       8.40415042       4.38510759        6       0.00000000      -0.07862942       0.07471331      -0.12317974
Pt      -0.01101218       0.01833986       6.57620304        9       0.00000000       0.04529235      -0.02548438       0.54575541
Ni       2.65626175      -0.03647710       6.63281370        9       1.00000000      -0.10113162       0.10307990      -0.14016076
Pt       5.22738125      -0.05096855       6.69798702       10       0.00000000       0.03540123       0.15769089       0.01178160
Ni       7.86859404      -0.00468989       6.65423640       10       1.00000000      -0.03649842      -0.05263912      -0.34979514
Pt       1.26686606       2.27236576       6.56111415        9       0.00000000      -0.00465322      -0.00636112       0.96749424
Pt       3.95760238       2.21510270       6.56546145        9       0.00000000       0.14590072      -0.03820137       0.93866508
Pt       6.65188394       2.20977917       6.52540324        8       0.00000000      -0.11428819       0.05087991       0.26969211
Ni       9.17473156       2.26474620       6.65355858       10       1.00000000      -0.01091063       0.02420243      -0.25579105
Pt       2.60510213       4.53302310       6.68245663       10       0.00000000       0.04015907      -0.08168955       0.26043464
Pt       5.30401508       4.52706173       6.65643156       10       0.00000000       0.28293082      -0.04399012       0.20952008
Pt       7.99068500       4.53134935       6.52634134        8       0.00000000      -0.15060425       0.00690399       0.13792281
Ni      10.45966047       4.54260027       6.65038645       10       1.00000000       0.00917179       0.02660622      -0.21978137
Pt       3.92642457       6.84210474       6.67749430       10       0.00000000       0.10465611       0.02476336       0.04504691
Pt       6.66854924       6.83524792       6.59752569        9       0.00000000      -0.02882692      -0.08839997       0.35262219
Ni       9.18813505       6.79391910       6.63140801        9       1.00000000       0.06387820      -0.04096890      -0.23394254
Pt      11.70911283       6.78801854       6.71184479       10       0.00000000      -0.14162273      -0.02709426      -0.17135867
