64
Lattice="10.280526341399945 0.0023180829175292544 -0.04109870838218889 5.142270689394629 8.82846533193737 -0.08336230048790369 -0.033556954874603 -0.05922061369704047 8.748034459500557" Properties=species:S:1:pos:R:3:tags:I:1:initial_magmoms:R:1:forces:R:3 unique_id=eb7a4a8f35db4c4faa512596f8f726bc stress="0.00016515909597415723 -2.1176341464214673e-06 1.1357560913153273e-05 -2.1176341464214673e-06 0.0001787939940207095 9.775589030318528e-06 1.1357560913153273e-05 9.775589030318528e-06 0.0001691352892375167" energy=-395.43467475382533 pbc="T T T"
Ni       0.03089419      -0.04643750       0.18697114        4       1.00000000       0.11968433      -0.08609375       0.26932553
Ni       2.53826859      -0.03916114       0.19367768        4       1.00000000      -0.10248338      -0.08009404       0.30057542
Ni       5.13108293      -0.03064345       0.14565957        4       1.00000000      -0.08958186      -0.00796511       0.21310531
Ni       7.69866597      -0.06049352       0.14400595        4       1.00000000      -0.04468663      -0.09500250       0.27486880
Ni       1.28053086       2.20723137       0.16680665        4       1.00000000      -0.00043048      -0.02057584       0.34930202
Pt       3.77169327       2.17505654       0.15986704        4       0.00000000      -0.14091415      -0.03573808       0.21538250
Pt       6.43113957       2.17162707       0.06422417        4       0.00000000       0.01019890      -0.02851000      -0.05527391
Pt       9.06135380       2.25143155       0.07336574        4       0.00000000       0.07182395       0.04400172       0.14216854
Ni       2.54095824       4.44014800       0.03057047        4       1.00000000      -0.03133617       0.03102217       0.01922135
Pt       5.12901674       4.50993472       0.04193776        4       0.00000000      -0.06606317       0.10534094      -0.11441454
Ni       7.71191983       4.45885022       0.01009482        4       1.00000000      -0.07158695       0.10044188       0.09723816
Ni      10.30442251       4.44415339      -0.00757295        4       1.00000000       0.08281546       0.13700313       0.02813158
Ni       3.83048035       6.65150829       0.04270777        4       1.00000000      -0.07645923       0.10287011       0.18149454
Ni       6.43779029       6.65938774       0.04200812        4       1.00000000       0.01419970       0.08016709       0.16890218
Ni       8.96987039       6.62015275       0.06690067        4       1.00000000      -0.14332348       0.01525302       0.17602549
Ni      11.58556226       6.61593742      -0.02641484        4       1.00000000       0.05551484      -0.05423096      -0.02564754
Ni       1.30562566       0.72277913       2.20073930        3       1.00000000       0.01529042       0.00140369       0.15942801
Ni       3.79466759       0.72343849       2.18609887        3       1.00000000      -0.17702109      -0.03850539      -0.01203931
Ni       6.43075416       0.73056998       2.17348168        3       1.00000000       0.11055244      -0.00827225      -0.00117803
Pt       9.00610336       0.71871479       2.17640861        3       0.00000000       0.09945397       0.16728092      -0.12914324
Ni       2.55060162       2.90193920       2.23291923        3       1.00000000       0.03619638      -0.09756431       0.18534650
Ni       5.11993838       2.95628616       2.18434616        3       1.00000000      -0.09750203       0.16486448      -0.06683995
Ni       7.68377770       2.92819011       2.18218344        3       1.00000000       0.03962607      -0.06578414      -0.06021719
Ni      10.32275926       2.91201131       2.19378073        3       1.00000000       0.09334575      -0.06670976       0.16391928
Ni       3.85612141       5.13895439       2.15768197        3       1.00000000      -0.00801236      -0.00949394       0.02901942
Ni       6.40818163       5.16362057       2.13191501        3       1.00000000       0.01107957       0.06643313      -0.04157347
Pt       8.93407610       5.10220530       2.14070069        3       0.00000000       0.00306979      -0.03532933       0.01358503
Pt      11.62535892       5.09278453       2.13201632        3       0.00000000       0.07647002      -0.07807435       0.00685557
Ni       5.16456867       7.31624764       2.09112455        3       1.00000000       0.02935528      -0.07144274      -0.03027753
Ni       7.63635084       7.35986344       2.08788815        3       1.00000000      -0.13993382      -0.05158777       0.04452226
Pt      10.31007314       7.38108619       2.06789288        3       0.00000000       0.07040556      -0.03125549       0.02908378
Ni      12.86467345       7.32399412       2.06422818        3       1.00000000       0.08279710      -0.11744186      -0.02734496
Ni       0.02245657       1.47249675       4.29630314        2       1.00000000       0.11429477       0.04418096      -0.04067000
Ni       2.50531524       1.47223705       4.26161605        2       1.00000000      -0.05696960       0.05118643      -0.07750050
Pt       5.13905700       1.44238293       4.20483782        2       0.00000000      -0.11261315      -0.00792715       0.02795164
Ni       7.69787373       1.44640743       4.26882533        2       1.00000000       0.02276036      -0.06243443      -0.12933932
Ni       1.27360643       3.66460494       4.30427026        2       1.00000000       0.03680532      -0.01304540      -0.05333350
Ni       3.77750737       3.68289735       4.26038715        2       1.00000000      -0.10273844       0.01990172      -0.20415882
Pt       6.48473494       3.66104708       4.27870671        2       0.00000000       0.06046440      -0.05727719      -0.11845667
Ni       9.02865939       3.67898685       4.25559857        2       1.00000000       0.19606594       0.00978476      -0.12421669
Ni       2.52326889       5.82362560       4.33176992        2       1.00000000      -0.01845809      -0.04013960      -0.03928172
Pt       5.12177441       5.85393337       4.27092399        2       0.00000000       0.03172303      -0.02022129      -0.12658106
Ni       7.69456689       5.84669426       4.27183881        2       1.00000000      -0.02200418       0.03166789      -0.08045571
Ni      10.30574227       5.81210988       4.29135253        2       1.00000000       0.08495950      -0.03865327      -0.04078757
Pt       3.80534631       8.04618402       4.22014790        2       0.00000000      -0.06061670      -0.00680541       0.11626295
Ni       6.40555012       8.07548004       4.20813792        2       1.00000000      -0.09570301       0.07919917      -0.17077239
Pt       8.92562292       8.02130006       4.17992763        2       0.00000000      -0.12095288      -0.06738770       0.08117030
Ni      11.55674375       8.01681708       4.22060000        2       1.00000000      -0.03020821      -0.13030871      -0.04869039
Pt      -0.02286651      -0.11431249       6.52475473        1       0.00000000       0.05038028      -0.07170985       0.11680958
Pt       2.53569134      -0.07097765       6.50953365        1       0.00000000      -0.04450172       0.02969386       0.16555388
Pt       5.14211803      -0.06814206       6.51033181        1       0.00000000       0.06716431      -0.02033645       0.01405190
Pt       7.67527332      -0.09359165       6.48840719        1       0.00000000      -0.07288318      -0.08087364       0.14238995
Pt       1.25710100       2.26944893       6.44129881        1       0.00000000       0.05113650       0.07107998       0.11594314
Pt       3.86782582       2.28186138       6.38680683        1       0.00000000       0.08282090       0.22324643      -0.26325519
Ni       6.40953679       2.20573615       6.37660063        1       1.00000000      -0.01879262       0.02358341      -0.25090680
Pt       8.92507056       2.25815763       6.31221433        1       0.00000000      -0.03477803       0.10176576      -0.38631661
Ni       2.54321594       4.45179427       6.41007383        1       1.00000000       0.03577482       0.14048690      -0.23885799
Ni       5.13172136       4.41724854       6.36439915        1       1.00000000       0.03903028       0.12388535      -0.24109607
Ni       7.65067661       4.38485726       6.42001403        1       1.00000000      -0.15868682       0.01613298      -0.11415379
Ni      10.29488711       4.40655987       6.38002098        1       1.00000000       0.17681896       0.03416848      -0.26174370
Ni       3.81703991       6.50909672       6.43114037        1       1.00000000      -0.00342380      -0.12027178      -0.06583234
Ni       6.39447127       6.51695239       6.41759368        1       1.00000000       0.02988834      -0.07144105      -0.08899874
Pt       8.98064092       6.44825219       6.42622875        1       0.00000000       0.00857217      -0.06279003       0.09413604
Ni      11.57333319       6.50985360       6.36943558        1       1.00000000       0.03212583      -0.06475180      -0.21241542
