64
Lattice="10.153868657430287 0.011961251519981978 -0.03740084765308983 5.0872930763925535 8.726148557631223 -0.0827798690642872 0.0 0.0 21.47873082019908" Properties=species:S:1:pos:R:3:tags:I:1:initial_magmoms:R:1:forces:R:3 unique_id=23a11942cea8418c8a92b24d40d90184 stress="0.001912025556958477 -6.21672752094874e-05 -0.00026125990453826863 -6.21672752094874e-05 0.0013325967693531785 -0.0002629173883030373 -0.00026125990453826863 -0.0002629173883030373 -0.004912864565911947" energy=-367.8450415975756 pbc="T T T"
Ni       0.03464282      -0.05435773       0.21047857        2       1.00000000       0.07162719      -0.01456795      -0.36324234
Ni       2.48179694      -0.03233925       0.22111148        2       1.00000000       0.02794356       0.01214640      -0.29350941
Pt       5.09722653      -0.01922781       0.16083111        2       0.00000000      -0.12262028       0.19782257      -1.26927567
Ni       7.63145042      -0.04419844       0.17450198        2       1.00000000      -0.03587375      -0.06740098      -0.46327128
Ni       1.25922645       2.19245317       0.11959221        1       1.00000000      -0.06017115       0.02281271       0.30298119
Pt       3.76235994       2.25450087       0.17704355        2       0.00000000       0.02183306      -0.05050772      -0.73769863
Ni       6.34999030       2.23808590       0.09581246        1       1.00000000      -0.05852751       0.00103165       0.09213939
Pt       8.88639064       2.24295181       0.08773659        1       0.00000000       0.04621424       0.15599126      -0.79170728
Ni       2.51434175       4.40514652       0.07739559        1       1.00000000       0.04457659      -0.00407489       0.35605884
Ni       5.09887812       4.41385822       0.07245442        1       1.00000000      -0.09130241       0.03266222       0.27689053
Ni       7.58079243       4.40824735       0.07395646        1       1.00000000       0.05071673       0.01897547       0.23424180
Ni      10.18579632       4.40487626       0.05699838        1       1.00000000      -0.03393414       0.01280336       0.33790044
Ni       3.82157485       6.51511514       0.06189521        1       1.00000000       0.04227271      -0.00379033       0.27156847
Ni       6.33499528       6.52743011       0.05287371        1       1.00000000      -0.01924674       0.02824365       0.26944386
Ni       8.84004115       6.48596073       0.11378823        1       1.00000000      -0.10353002      -0.02760136      -0.34035719
Ni      11.47179266       6.49053554       0.00000000        0       1.00000000       0.03009974       0.05815023       0.15790932
Ni       1.29015315       0.72485535       2.20159098        4       1.00000000       0.00302636       0.07698019       0.16162167
Ni       3.72920714       0.72951638       2.17556968        4       1.00000000      -0.15828646      -0.05178681       0.19273296
Ni       6.37186450       0.75342440       2.16836883        4       1.00000000       0.07599819       0.06382594       0.10960701
Pt       8.90594730       0.72956789       2.17938346        4       0.00000000       0.08071472      -0.09950379       0.19880205
Ni       2.49551857       2.92554526       2.22692239        4       1.00000000      -0.00143447      -0.01694967       0.13342870
Ni       5.08684196       2.96620432       2.14094287        3       1.00000000       0.03715717       0.10028172       0.03379324
Ni       7.59361794       2.95197278       2.15271027        4       1.00000000      -0.02394457       0.03810272       0.09326234
Ni      10.19757234       2.94976258       2.17810539        4       1.00000000       0.07193648       0.01624275       0.12675352
Ni       3.80540259       5.06968526       2.13537799        3       1.00000000      -0.00045852      -0.05253925       0.04753807
Ni       6.34006325       5.10250463       2.09820709        3       1.00000000      -0.00546365      -0.00120786       0.04986242
Ni       8.85660718       5.02871243       2.12609142        3       1.00000000      -0.01083543      -0.10702879       0.07574187
Ni      11.46132662       5.02245906       2.12040319        3       1.00000000       0.06432532      -0.10944388       0.14231416
Ni       5.11138847       7.19471233       2.08923896        3       1.00000000      -0.05141671      -0.04978430       0.08795223
Ni       7.54540342       7.22475560       2.07147792        3       1.00000000      -0.05165529      -0.06742958       0.10015513
Pt      10.20136875       7.15241859       2.11720243        3       0.00000000       0.05279716      -0.22554781       0.09451770
Ni      12.71611665       7.19018958       2.05435117        3       1.00000000       0.09003396      -0.11355746       0.06919781
Ni       0.04693619       1.46576458       4.27120543        7       1.00000000       0.11319156      -0.02248643      -0.12580459
Ni       2.45705177       1.47720064       4.23331500        6       1.00000000      -0.04113038      -0.00086925      -0.14473601
Pt       5.06915965       1.45843510       4.16741176        6       0.00000000       0.02858913      -0.02091317      -0.21645621
Ni       7.61386376       1.44500150       4.24146657        6       1.00000000      -0.03804806      -0.06758038      -0.20837988
Ni       1.26324743       3.61396061       4.27550771        7       1.00000000       0.04167635      -0.04236400      -0.09719162
Ni       3.74390687       3.69120230       4.21328585        6       1.00000000      -0.01169037       0.08755784      -0.18381739
Pt       6.36847108       3.68333522       4.24945351        6       0.00000000       0.03728225      -0.01273072       0.02076463
Ni       8.92896474       3.66556742       4.18138209        6       1.00000000       0.04416506       0.07133862      -0.18306264
Ni       2.50734266       5.72759763       4.25180548        7       1.00000000      -0.04715165      -0.04184124      -0.16884165
Ni       5.06424492       5.77583514       4.24123870        6       1.00000000       0.02821014      -0.01539055      -0.16855193
Ni       7.58982496       5.78623656       4.19583246        6       1.00000000      -0.01250812       0.01907059      -0.17055961
Ni      10.19005000       5.71815704       4.23186987        6       1.00000000       0.02421627       0.00419293      -0.09524983
Pt       3.80522563       7.87772423       4.19691053        6       0.00000000       0.00344817       0.02609422       0.00178479
Ni       6.31551317       7.94291940       4.16242701        6       1.00000000      -0.07574518      -0.02558228      -0.18771393
Pt       8.79585027       7.92648707       4.14061454        5       0.00000000      -0.08655815       0.03275400      -0.12209555
Ni      11.44303846       7.90900266       4.17873806        6       1.00000000      -0.00281494      -0.10468581      -0.16656960
Pt      -0.00516306      -0.08334650       6.47873082       11       0.00000000      -0.17775288       0.17992931       0.26533063
Pt       2.49291003      -0.02590402       6.46814648       11       0.00000000       0.21672391       0.11743546       0.31011970
Pt       5.08201184      -0.04484456       6.34000810        9       0.00000000      -0.09660349      -0.04639174       1.29381801
Pt       7.59188027      -0.07549667       6.44513876       10       0.00000000       0.11538357       0.17503125       0.40732009
Ni       1.24800332       2.21579816       6.36803216       10       1.00000000       0.04428692       0.01126785      -0.12405862
Pt       3.76622027       2.29749256       6.31826020        9       0.00000000      -0.14493762      -0.05838734       0.72591626
Ni       6.33191891       2.21161155       6.39043952       10       1.00000000       0.01728515      -0.00669377       0.02267453
Pt       8.88066279       2.26374784       6.24100507        8       0.00000000      -0.01424872      -0.18493372       0.83425432
Ni       2.49310275       4.38933667       6.35131251       10       1.00000000       0.06223511      -0.04670524      -0.30594085
Ni       5.07103742       4.39491469       6.37478262       10       1.00000000      -0.07059689       0.01900899      -0.19678177
Ni       7.54154261       4.33500787       6.38521560       10       1.00000000      -0.00972441      -0.00257636      -0.03643813
Ni      10.22645201       4.33042832       6.32598364        9       1.00000000       0.03316170       0.00487565      -0.23053731
Ni       3.79451693       6.40979030       6.36339307       10       1.00000000      -0.00640871      -0.01244354      -0.21669692
Ni       6.30327680       6.43907549       6.33394898        9       1.00000000       0.02210196       0.04670699      -0.26181423
Pt       8.87357139       6.36433964       6.38356039       10       0.00000000       0.04381837       0.04323090       0.14499741
Ni      11.44981774       6.43757410       6.30467557        9       1.00000000      -0.02242811       0.10073053      -0.17303498
