102
Lattice="14.06201159801613 3.1160625793574216e-06 -1.3301758008065295e-08 3.1160625793574216e-06 14.062011630348772 4.96101812785929e-07 0.0 0.0 35.966009058573086" Properties=species:S:1:pos:R:3:tags:I:1:initial_magmoms:R:1:forces:R:3 energy=-573.84814453125 free_energy=-573.84814453125 stress="0.014192176433218575 -9.586669457395664e-05 -5.12941966626822e-05 -9.586669457395664e-05 0.01419216304039294 -5.14195102629614e-05 -5.12941966626822e-05 -5.14195102629614e-05 0.001840765386716722" pbc="T T T"
Pt       1.40620147       1.40620147       0.00000001        0       0.00000000       0.00538848       0.00539383       0.25605088
Pt       4.21860379       1.40620210       0.00000001        0       0.00000000      -0.00496673       0.00607767       0.25850278
Pt       7.03100612       1.40620272       0.00000001        0       0.00000000      -0.00165464      -0.00100121       0.26468796
Pt       9.84340843       1.40620334       0.00000000        0       0.00000000      -0.00106688       0.00583340       0.25665724
Pt      12.65581074       1.40620397       0.00000000        0       0.00000000       0.00035295      -0.00260023       0.26720595
Pt       1.40620210       4.21860380       0.00000011        0       0.00000000       0.00607457      -0.00496479       0.25848329
Pt       4.21860442       4.21860442       0.00000011        0       0.00000000       0.00116195       0.00116026       0.26605886
Pt       7.03100674       4.21860505       0.00000010        0       0.00000000      -0.00013524      -0.00064574       0.26119599
Pt       9.84340905       4.21860567       0.00000010        0       0.00000000      -0.00161065      -0.00268837       0.26108658
Pt      12.65581137       4.21860630       0.00000010        0       0.00000000       0.00073599       0.00314762       0.26853716
Pt       1.40620272       7.03100614       0.00000021        0       0.00000000      -0.00101116      -0.00165917       0.26466900
Pt       4.21860504       7.03100675       0.00000020        0       0.00000000      -0.00064363      -0.00014031       0.26120287
Pt       7.03100736       7.03100738       0.00000020        0       0.00000000      -0.00124306      -0.00124113       0.25707746
Pt       9.84340967       7.03100800       0.00000020        0       0.00000000       0.00345457       0.00186924       0.26752532
Pt      12.65581198       7.03100862       0.00000020        0       0.00000000       0.00275061      -0.00275764       0.26553369
Pt       1.40620334       9.84340845       0.00000031        0       0.00000000       0.00582592      -0.00106169       0.25663659
Pt       4.21860567       9.84340907       0.00000030        0       0.00000000      -0.00267575      -0.00158582       0.26108375
Pt       7.03100798       9.84340969       0.00000030        0       0.00000000       0.00186961       0.00346427       0.26752630
Pt       9.84341030       9.84341032       0.00000030        0       0.00000000       0.00252578       0.00252358       0.27493626
Pt      12.65581261       9.84341095       0.00000030        0       0.00000000      -0.00344550       0.00073168       0.27616584
Pt       1.40620397      12.65581077       0.00000040        0       0.00000000      -0.00259037       0.00034374       0.26718760
Pt       4.21860629      12.65581139       0.00000040        0       0.00000000       0.00314853       0.00072846       0.26853812
Pt       7.03100861      12.65581201       0.00000040        0       0.00000000      -0.00277976       0.00273195       0.26553690
Pt       9.84341093      12.65581263       0.00000040        0       0.00000000       0.00073217      -0.00344747       0.27617496
Pt      12.65581324      12.65581327       0.00000039        0       0.00000000       0.00160221       0.00160503       0.27360082
Pt      -0.00000000       0.00000007       1.98866953        1       0.00000000      -0.02613966      -0.02612317      -0.24775454
Pt       2.81240232       0.00000069       1.98866953        1       0.00000000       0.00682078      -0.01147105      -0.27435210
Pt       5.62480464       0.00000131       1.98866952        1       0.00000000       0.04173699      -0.04740024      -0.23425247
Pt       8.43720697       0.00000194       1.98866952        1       0.00000000      -0.01268950      -0.02957324      -0.25050858
Pt      11.24960929       0.00000256       1.98866952        1       0.00000000       0.02003149      -0.02054157      -0.24474558
Pt       0.00000061       2.81240239       1.98866963        1       0.00000000      -0.01147066       0.00680065      -0.27437001
Pt       2.81240294       2.81240302       1.98866962        1       0.00000000      -0.00015383      -0.00016614      -0.28415155
Pt       5.62480526       2.81240364       1.98866962        1       0.00000000      -0.00411493      -0.01848919      -0.28431940
Pt       8.43720759       2.81240426       1.98866962        1       0.00000000       0.00423124      -0.01716147      -0.27801454
Pt      11.24960990       2.81240488       1.98866962        1       0.00000000       0.00775360       0.00240163      -0.27066466
Pt       0.00000124       5.62480473       1.98866973        1       0.00000000      -0.04739501       0.04172745      -0.23426615
Pt       2.81240356       5.62480534       1.98866972        1       0.00000000      -0.01847072      -0.00411634      -0.28430638
Pt       5.62480589       5.62480598       1.98866972        1       0.00000000      -0.01680467      -0.01679353      -0.28692317
Pt       8.43720821       5.62480659       1.98866972        1       0.00000000       0.00814711      -0.01606650      -0.28289011
Pt      11.24961052       5.62480722       1.98866971        1       0.00000000       0.01556386       0.02538683      -0.24662709
Pt       0.00000187       8.43720706       1.98866983        1       0.00000000      -0.02956068      -0.01268674      -0.25052822
Pt       2.81240418       8.43720768       1.98866982        1       0.00000000      -0.01713034       0.00422784      -0.27800003
Pt       5.62480651       8.43720830       1.98866982        1       0.00000000      -0.01606730       0.00813679      -0.28288075
Pt       8.43720883       8.43720891       1.98866982        1       0.00000000       0.00992915       0.00992612      -0.25597367
Pt      11.24961114       8.43720955       1.98866981        1       0.00000000      -0.02438305       0.04085353      -0.26412195
Pt       0.00000249      11.24960939       1.98866992        1       0.00000000      -0.02052620       0.02004133      -0.24474731
Pt       2.81240480      11.24961001       1.98866992        1       0.00000000       0.00242012       0.00776182      -0.27064383
Pt       5.62480714      11.24961062       1.98866992        1       0.00000000       0.02540215       0.01558257      -0.24662162
Pt       8.43720946      11.24961125       1.98866992        1       0.00000000       0.04087048      -0.02437215      -0.26412240
Pt      11.24961177      11.24961187       1.98866991        1       0.00000000      -0.02230990      -0.02229227      -0.29911008
Pt       1.40916162       1.40916005       3.93867975        2       0.00000000      -0.00001639      -0.00000671      -0.00004952
Pt       4.21838519       1.40610369       3.93995003        2       0.00000000      -0.00001938       0.00017842       0.00007230
Pt       7.02961412       1.39898930       3.93813304        2       0.00000000      -0.00020591       0.00065818       0.00007537
Pt       9.84473004       1.40341557       3.93922275        2       0.00000000      -0.00010341       0.00069740      -0.00018314
Pt      12.65947857       1.40750073       3.93754945        2       0.00000000       0.00010019      -0.00005514      -0.00001791
Pt       1.40610307       4.21838287       3.93995137        2       0.00000000       0.00020583      -0.00000851       0.00008664
Pt       4.21498832       4.21498835       3.94142885        2       0.00000000       0.00018149       0.00020968       0.00008032
Pt       7.02571178       4.20834709       3.93811410        2       0.00000000       0.00017979       0.00061866       0.00021265
Pt       9.84323925       4.21691765       3.93861662        2       0.00000000      -0.00000126       0.00011302      -0.00004148
Pt      12.65686598       4.22572620       3.93887679        2       0.00000000       0.00031792      -0.00032771       0.00012505
Pt       1.39899272       7.02961195       3.93813286        2       0.00000000       0.00068872      -0.00021398       0.00009224
Pt       4.20834635       7.02571022       3.93812037        2       0.00000000       0.00063386       0.00018601       0.00016364
Pt       7.01841647       7.01841568       3.93233848        2       0.00000000       0.00117433       0.00118595       0.00099489
Pt       9.84403461       7.03224447       3.94144181        2       0.00000000      -0.00002031       0.00013209       0.00028776
Pt      12.63910074       7.04945983       3.96351250        2       0.00000000       0.00084744      -0.00086149      -0.00102080
Pt       1.40342083       9.84473013       3.93922040        2       0.00000000       0.00071669      -0.00009167      -0.00017041
Pt       4.21692728       9.84323851       3.93861588        2       0.00000000       0.00008761      -0.00001491      -0.00005156
Pt       7.03225223       9.84403832       3.94144267        2       0.00000000       0.00012958      -0.00002405       0.00032392
Pt       9.84397896       9.84397903       3.96459646        2       0.00000000      -0.00001355      -0.00000529      -0.00153953
Pt      12.64926837       9.84804992       3.94746760        2       0.00000000       0.00110159      -0.00001591      -0.00069359
Pt       1.40749892      12.65948149       3.93755226        2       0.00000000      -0.00004249       0.00008829      -0.00000912
Pt       4.22572778      12.65686473       3.93888012        2       0.00000000      -0.00031155       0.00033388       0.00010690
Pt       7.04946704      12.63909353       3.96352250        2       0.00000000      -0.00084865       0.00083901      -0.00100004
Pt       9.84804931      12.64925925       3.94747680        2       0.00000000      -0.00001078       0.00109818      -0.00068557
Pt      12.64473080      12.64473191       3.96491755        2       0.00000000      -0.00017899      -0.00017375       0.00097738
Pt       0.01918468       0.01920624       5.88613470        3       0.00000000       0.00000777      -0.00020923       0.00003976
Pt       2.81712938      -0.00094236       5.88486313        3       0.00000000      -0.00021055       0.00018372       0.00022623
Pt       5.62000169       0.00502873       5.88713264        3       0.00000000       0.00004014       0.00038793       0.00008035
Pt       8.43200281       0.01628703       5.88851251        3       0.00000000      -0.00040428       0.00098708      -0.00027090
Pt      11.26035105       0.03315712       5.88881345        3       0.00000000      -0.00076942       0.00140548      -0.00017670
Pt      -0.00093616       2.81713423       5.88486296        3       0.00000000       0.00016532      -0.00023231       0.00024104
Pt       2.81129129       2.81128030       5.88682013        3       0.00000000      -0.00014195      -0.00008297      -0.00016421
Pt       5.62439329       2.80593242       5.88667445        3       0.00000000       0.00001580       0.00041083       0.00034156
Pt       8.43711493       2.80461977       5.88539750        3       0.00000000       0.00022789       0.00056554       0.00025079
Pt      11.25106300       2.82345566       5.88400935        3       0.00000000       0.00010956       0.00057206       0.00034544
Pt       0.00502268       5.62000456       5.88713141        3       0.00000000       0.00043461       0.00002953       0.00008500
Pt       2.80593398       5.62438881       5.88667381        3       0.00000000       0.00040730       0.00000774       0.00034901
Pt       5.61276344       5.61275668       5.88573500        3       0.00000000       0.00045207       0.00045935      -0.00016198
Pt       8.42411713       5.59116217       5.88180163        3       0.00000000       0.00050659       0.00199316      -0.00017697
Pt      11.24836581       5.61743407       5.88901007        3       0.00000000       0.00020860      -0.00014465      -0.00038025
Pt       0.01629255       8.43200454       5.88851056        3       0.00000000       0.00097292      -0.00042341      -0.00028792
Pt       2.80462358       8.43712307       5.88539867        3       0.00000000       0.00054618       0.00019688       0.00024554
Pt       5.59116376       8.42411066       5.88180114        3       0.00000000       0.00200409       0.00053099      -0.00017011
Pt       8.36542422       8.36542061       5.86008999        3       0.00000000       0.00503907       0.00502328       0.00245121
Pt      11.24473614       8.41686946       5.92253220        3       0.00000000       0.00258727      -0.00109831      -0.00244384
Pt       0.03316601      11.26035083       5.88881131        3       0.00000000       0.00141714      -0.00077487      -0.00017115
Pt       2.82346891      11.25105606       5.88400876        3       0.00000000       0.00045313       0.00021051       0.00034299
Pt       5.61744012      11.24836468       5.88901164        3       0.00000000      -0.00013607       0.00019843      -0.00037462
Pt       8.41688997      11.24471270       5.92256886        3       0.00000000      -0.00107999       0.00256879      -0.00242104
Pt      11.27955290      11.27951472       5.90110289        3       0.00000000      -0.00225925      -0.00229597      -0.00284444
O       10.25286394      10.25298644       7.43227403        0       0.00000000       0.02680343       0.02692351       0.02906223
H       10.60059600      10.60073206       8.28734351        0       0.00000000       0.03051956       0.03065750      -0.00911921
