102
Lattice="14.06201159801613 3.1160625793574216e-06 -1.3301758008065295e-08 3.1160625793574216e-06 14.062011630348772 4.96101812785929e-07 0.0 0.0 35.966009058573086" Properties=species:S:1:pos:R:3:tags:I:1:initial_magmoms:R:1:forces:R:3 energy=-573.9176025390625 free_energy=-573.9176025390625 stress="0.01425823282543477 1.6725050316556177e-06 2.33067049580221e-05 1.6725050316556177e-06 0.014258229849251297 2.3311747612639514e-05 2.33067049580221e-05 2.3311747612639514e-05 0.0018698350727922874" pbc="T T T"
Pt       1.40620147       1.40620147       0.00000001        0       0.00000000      -0.00074749      -0.00074154       0.26868612
Pt       4.21860379       1.40620210       0.00000001        0       0.00000000      -0.00136471       0.00069835       0.26207435
Pt       7.03100612       1.40620272       0.00000001        0       0.00000000      -0.00047894      -0.00012406       0.26528627
Pt       9.84340843       1.40620334       0.00000000        0       0.00000000       0.00188849       0.00046028       0.26444578
Pt      12.65581074       1.40620397       0.00000000        0       0.00000000       0.00095150       0.00007989       0.26160875
Pt       1.40620210       4.21860380       0.00000011        0       0.00000000       0.00069884      -0.00136604       0.26205280
Pt       4.21860442       4.21860442       0.00000011        0       0.00000000      -0.00758724      -0.00758465       0.25396344
Pt       7.03100674       4.21860505       0.00000010        0       0.00000000      -0.00147053       0.00227397       0.26673299
Pt       9.84340905       4.21860567       0.00000010        0       0.00000000       0.00283806      -0.00148051       0.26177150
Pt      12.65581137       4.21860630       0.00000010        0       0.00000000       0.00459645      -0.00442698       0.25701517
Pt       1.40620272       7.03100614       0.00000021        0       0.00000000      -0.00012218      -0.00047986       0.26526105
Pt       4.21860504       7.03100675       0.00000020        0       0.00000000       0.00227566      -0.00147244       0.26673648
Pt       7.03100736       7.03100738       0.00000020        0       0.00000000       0.00250667       0.00250571       0.27829581
Pt       9.84340967       7.03100800       0.00000020        0       0.00000000      -0.00510349       0.00450983       0.27758074
Pt      12.65581198       7.03100862       0.00000020        0       0.00000000       0.00033745      -0.00157520       0.26331347
Pt       1.40620334       9.84340845       0.00000031        0       0.00000000       0.00045347       0.00188985       0.26442698
Pt       4.21860567       9.84340907       0.00000030        0       0.00000000      -0.00147177       0.00285673       0.26177031
Pt       7.03100798       9.84340969       0.00000030        0       0.00000000       0.00450553      -0.00509865       0.27758253
Pt       9.84341030       9.84341032       0.00000030        0       0.00000000      -0.00440215      -0.00440301       0.27724639
Pt      12.65581261       9.84341095       0.00000030        0       0.00000000      -0.00013370       0.00162844       0.26374549
Pt       1.40620397      12.65581077       0.00000040        0       0.00000000       0.00008876       0.00094293       0.26158375
Pt       4.21860629      12.65581139       0.00000040        0       0.00000000      -0.00441760       0.00459309       0.25701788
Pt       7.03100861      12.65581201       0.00000040        0       0.00000000      -0.00159466       0.00032185       0.26331696
Pt       9.84341093      12.65581263       0.00000040        0       0.00000000       0.00163052      -0.00013309       0.26374784
Pt      12.65581324      12.65581327       0.00000039        0       0.00000000       0.00431090       0.00431454       0.25632462
Pt      -0.00000000       0.00000007       1.98866953        1       0.00000000       0.00845869       0.00847274      -0.28803205
Pt       2.81240232       0.00000069       1.98866953        1       0.00000000      -0.00424324       0.00695934      -0.28547120
Pt       5.62480464       0.00000131       1.98866952        1       0.00000000       0.01353542      -0.01046637      -0.26958749
Pt       8.43720697       0.00000194       1.98866952        1       0.00000000      -0.00395291      -0.00802347      -0.27002770
Pt      11.24960929       0.00000256       1.98866952        1       0.00000000      -0.01454711      -0.00522211      -0.27604073
Pt       0.00000061       2.81240239       1.98866963        1       0.00000000       0.00695012      -0.00425678      -0.28547320
Pt       2.81240294       2.81240302       1.98866962        1       0.00000000      -0.00156776      -0.00157502      -0.28192192
Pt       5.62480526       2.81240364       1.98866962        1       0.00000000       0.01139159       0.01142402      -0.27366853
Pt       8.43720759       2.81240426       1.98866962        1       0.00000000      -0.00532863       0.01000252      -0.27071321
Pt      11.24960990       2.81240488       1.98866962        1       0.00000000      -0.01361450       0.00497525      -0.27920729
Pt       0.00000124       5.62480473       1.98866973        1       0.00000000      -0.01046742       0.01353355      -0.26958281
Pt       2.81240356       5.62480534       1.98866972        1       0.00000000       0.01143605       0.01139371      -0.27364898
Pt       5.62480589       5.62480598       1.98866972        1       0.00000000       0.04861268       0.04861643      -0.23779684
Pt       8.43720821       5.62480659       1.98866972        1       0.00000000      -0.01168717       0.05738726      -0.21109478
Pt      11.24961052       5.62480722       1.98866971        1       0.00000000      -0.02644292       0.02223222      -0.26164460
Pt       0.00000187       8.43720706       1.98866983        1       0.00000000      -0.00803180      -0.00394540      -0.27001745
Pt       2.81240418       8.43720768       1.98866982        1       0.00000000       0.01002020      -0.00533534      -0.27069974
Pt       5.62480651       8.43720830       1.98866982        1       0.00000000       0.05738493      -0.01169058      -0.21108578
Pt       8.43720883       8.43720891       1.98866982        1       0.00000000       0.01150027       0.01149994      -0.33466196
Pt      11.24961114       8.43720955       1.98866981        1       0.00000000      -0.05932552       0.00352989      -0.22039385
Pt       0.00000249      11.24960939       1.98866992        1       0.00000000      -0.00522172      -0.01455875      -0.27602556
Pt       2.81240480      11.24961001       1.98866992        1       0.00000000       0.00497799      -0.01361109      -0.27919623
Pt       5.62480714      11.24961062       1.98866992        1       0.00000000       0.02223424      -0.02643889      -0.26165131
Pt       8.43720946      11.24961125       1.98866992        1       0.00000000       0.00352506      -0.05931940      -0.22039863
Pt      11.24961177      11.24961187       1.98866991        1       0.00000000      -0.01989245      -0.01989315      -0.26765490
Pt       1.40648335       1.40648379       3.94062650        2       0.00000000      -0.00048530      -0.00048026       0.00333709
Pt       4.21749906       1.40708899       3.93999409        2       0.00000000      -0.00237862       0.00112299       0.00053813
Pt       7.02885054       1.40630246       3.93715990        2       0.00000000       0.00005697      -0.00097043      -0.00050601
Pt       9.84456937       1.40618996       3.93795887        2       0.00000000       0.00051388      -0.00095553      -0.00358781
Pt      12.65687596       1.40665175       3.94020773        2       0.00000000       0.00311627       0.00094075       0.00081135
Pt       1.40708773       4.21749871       3.93999657        2       0.00000000       0.00113928      -0.00236858       0.00054041
Pt       4.21740076       4.21740188       3.93810626        2       0.00000000      -0.00040222      -0.00040988       0.00165437
Pt       7.02970143       4.22667742       3.93793886        2       0.00000000       0.00110837      -0.00068339       0.00765024
Pt       9.84145918       4.22345904       3.93774380        2       0.00000000       0.00073839      -0.00282674       0.00631192
Pt      12.65842110       4.21428667       3.93601472        2       0.00000000       0.00161385       0.00206842       0.00253981
Pt       1.40630532       7.02885004       3.93716011        2       0.00000000      -0.00095537       0.00004695      -0.00044188
Pt       4.22668000       7.02970018       3.93794400        2       0.00000000      -0.00069767       0.00111087       0.00760226
Pt       7.05596328       7.05596389       3.97554102        2       0.00000000       0.00331076       0.00330160       0.00455587
Pt       9.82532256       7.04642335       3.96217999        2       0.00000000      -0.00792019      -0.00031268      -0.00267619
Pt      12.64819437       7.02979817       3.93898309        2       0.00000000      -0.00067280       0.00173177       0.00709140
Pt       1.40618987       9.84456657       3.93795900        2       0.00000000      -0.00101519       0.00053804      -0.00368698
Pt       4.22345837       9.84145801       3.93774288        2       0.00000000      -0.00283289       0.00073300       0.00631303
Pt       7.04642435       9.82532269       3.96218001        2       0.00000000      -0.00032639      -0.00793047      -0.00268145
Pt       9.82896278       9.82896323       3.96438729        2       0.00000000      -0.00122772      -0.00124546      -0.01010203
Pt      12.65059346       9.84297923       3.93754240        2       0.00000000      -0.00024494      -0.00024574       0.00734556
Pt       1.40665101      12.65687687       3.94020717        2       0.00000000       0.00096315       0.00309957       0.00087118
Pt       4.21428657      12.65842041       3.93601531        2       0.00000000       0.00206685       0.00162440       0.00253697
Pt       7.02979693      12.64819323       3.93898691        2       0.00000000       0.00173226      -0.00066126       0.00709872
Pt       9.84297829      12.65059366       3.93754035        2       0.00000000      -0.00024360      -0.00024514       0.00735879
Pt      12.66069579      12.66069643       3.93499211        2       0.00000000      -0.00103614      -0.00102927       0.00225379
Pt       0.00100169       0.00100057       5.88433598        3       0.00000000      -0.00115173      -0.00113759       0.00664288
Pt       2.81248892      -0.00013172       5.88386647        3       0.00000000      -0.00038598       0.00135258       0.00706318
Pt       5.62266847       0.00282273       5.88205766        3       0.00000000      -0.00036047       0.00190252       0.00049046
Pt       8.43580815       0.01036375       5.88160963        3       0.00000000       0.00185636      -0.01194071      -0.00154138
Pt      11.25105228       0.00331059       5.88266090        3       0.00000000       0.00035130       0.00114660      -0.00176817
Pt      -0.00013190       2.81249089       5.88386582        3       0.00000000       0.00136328      -0.00039825       0.00707188
Pt       2.81307381       2.81306942       5.88353710        3       0.00000000      -0.00204493      -0.00202802       0.00739217
Pt       5.62556575       2.81095365       5.88285804        3       0.00000000      -0.00083886       0.00343957       0.00054821
Pt       8.43600207       2.79889962       5.88293157        3       0.00000000       0.00190022       0.00613156      -0.00194263
Pt      11.24833721       2.80857261       5.88359567        3       0.00000000       0.00206854       0.00367251      -0.00092784
Pt       0.00282051       5.62267142       5.88205869        3       0.00000000       0.00194942      -0.00038681       0.00048596
Pt       2.81095625       5.62556835       5.88285808        3       0.00000000       0.00341904      -0.00084984       0.00055376
Pt       5.61253796       5.61253371       5.88491826        3       0.00000000      -0.00129622      -0.00130000       0.00437585
Pt       8.43613630       5.58287906       5.89838523        3       0.00000000      -0.00037188       0.01224936       0.00341147
Pt      11.26383825       5.60206695       5.87721254        3       0.00000000       0.00012444       0.00329416       0.00510338
Pt       0.01036005       8.43579831       5.88160947        3       0.00000000      -0.01191175       0.00190062      -0.00154388
Pt       2.79889962       8.43600392       5.88293234        3       0.00000000       0.00612262       0.00189898      -0.00193444
Pt       5.58287551       8.43613295       5.89838547        3       0.00000000       0.01224320      -0.00035683       0.00341654
Pt       8.40406154       8.40406320       6.02357030        3       0.00000000       0.01260418       0.01259544      -0.03269908
Pt      11.28343935       8.43299915       5.88332412        3       0.00000000      -0.01567228      -0.00258427       0.00371674
Pt       0.00330920      11.25105141       5.88266106        3       0.00000000       0.00116147       0.00034740      -0.00177616
Pt       2.80857090      11.24834023       5.88359496        3       0.00000000       0.00370007       0.00205436      -0.00092742
Pt       5.60205989      11.26382885       5.87721223        3       0.00000000       0.00331314       0.00017528       0.00510973
Pt       8.43299798      11.28343899       5.88332486        3       0.00000000      -0.00259163      -0.01562997       0.00372010
Pt      11.27079930      11.27080328       5.87266171        3       0.00000000      -0.00067788      -0.00069101       0.00718030
O        8.79832225       8.79831859       7.93508735        0       0.00000000      -0.00860474      -0.00860903      -0.02461520
H        8.22734191       8.22734313       8.50680955        0       0.00000000      -0.02608182      -0.02608246      -0.02522538
