64
Lattice="10.76477084976114 0.0018314307874449673 0.01108038152097926 5.383971490467771 9.321201445855394 -0.012051945703265851 0.009047093627254322 -0.016586025318774313 9.414403844466339" Properties=species:S:1:pos:R:3:tags:I:1:initial_magmoms:R:1:forces:R:3 unique_id=d249b72c22b94a979a3b9ac6351c4670 stress="-7.741031496039108e-05 6.910679596891095e-07 -2.3319614748959526e-06 6.910679596891095e-07 -7.686331673194269e-05 -3.286803289195966e-06 -2.3319614748959526e-06 -3.286803289195966e-06 -3.095975008848839e-05" energy=-430.4550146553914 pbc="T T T"
Pt      -0.00628852       0.00372190       0.08697655        4       0.00000000      -0.01616522       0.02304237       0.05719043
Pt       2.68951776       0.00207653       0.09742213        4       0.00000000      -0.02746524       0.01278765       0.10878000
Pt       5.38382354      -0.00635098       0.10026885        4       0.00000000       0.00940838      -0.02501476       0.10034293
Pt       8.08160655      -0.00870432       0.11280606        4       0.00000000       0.04429400      -0.01259666       0.08556713
Pt       1.31403031       2.36829937       0.10799179        4       0.00000000      -0.08995955       0.11044199       0.12296103
Pt       4.02892351       2.33391843       0.09376322        4       0.00000000      -0.04519127       0.01268072       0.11495230
Pt       6.74144755       2.33217958       0.09595834        4       0.00000000       0.07670870      -0.00480002       0.12124330
Pt       9.44636996       2.36531186       0.04625708        4       0.00000000       0.04540199       0.05428386       0.01279429
Pt       2.66115132       4.66267040       0.08874421        4       0.00000000      -0.04374605       0.00317312       0.05690074
Pt       5.37843889       4.66484114       0.08670715        4       0.00000000      -0.01800945       0.01351995       0.10311623
Pt       8.11106628       4.65509725       0.09305943        4       0.00000000       0.05432225      -0.01551654       0.09589791
Ni      10.76301338       4.65372705       0.09486012        4       1.00000000      -0.00178652      -0.03570474       0.35564709
Pt       4.02684418       6.99333289       0.03130225        4       0.00000000      -0.01973206       0.00066782       0.00677593
Pt       6.72776241       6.98920005       0.08196668        4       0.00000000      -0.00640558      -0.00420747       0.12867791
Pt       9.44177005       6.96128814       0.09824430        4       0.00000000       0.06851103      -0.06631363       0.14023936
Pt      12.10818411       6.96832128       0.10764870        4       0.00000000       0.01504301      -0.03072785       0.11100686
Pt       1.31810601       0.80059802       2.37609016        3       0.00000000      -0.10652036       0.05028959       0.08427886
Pt       4.03891796       0.77347562       2.38313368        3       0.00000000      -0.00953125      -0.00461754       0.11466915
Pt       6.75771569       0.74372671       2.38451844        3       0.00000000       0.08629811      -0.03742360       0.08594354
Pt       9.42141733       0.76738291       2.41010231        3       0.00000000      -0.00951158      -0.03321332       0.16229016
Pt       2.65524261       3.11209731       2.37205314        3       0.00000000      -0.05652467       0.02734327       0.10614671
Pt       5.38653844       3.10534613       2.37582845        3       0.00000000       0.02039366       0.03097424       0.09540769
Pt       8.12298383       3.09220837       2.38473344        3       0.00000000       0.12812297      -0.08225833       0.13019646
Ni      10.76355454       3.10891534       2.35826221        3       1.00000000      -0.04102613      -0.01398986       0.02822756
Pt       4.01031502       5.47245881       2.37623169        3       0.00000000      -0.10724083       0.10661555       0.07838430
Pt       6.73419537       5.43633867       2.37297158        3       0.00000000       0.00095113       0.01538428       0.12095489
Pt       9.46105136       5.39638541       2.34830573        3       0.00000000       0.08437189      -0.10575423       0.06439328
Pt      12.09985324       5.42399085       2.35417901        3       0.00000000      -0.01436018      -0.05180653       0.06418301
Pt       5.33218737       7.77564471       2.39708457        3       0.00000000      -0.19092859       0.05315722       0.17253224
Pt       8.07433620       7.76050108       2.37320270        3       0.00000000      -0.03049485      -0.02725956       0.11849064
Pt      10.80798775       7.75457120       2.37783897        3       0.00000000       0.09345592      -0.04838819       0.13601246
Ni      13.46602365       7.76534955       2.37290877        3       1.00000000       0.04288506      -0.00612351       0.09138567
Pt      -0.02431728       1.52909112       4.68722240        2       0.00000000      -0.02043425      -0.00081273      -0.08495703
Pt       2.68342831       1.54403430       4.68324754        2       0.00000000      -0.05635825       0.00564635      -0.07225805
Pt       5.39952300       1.53968515       4.68525833        2       0.00000000       0.06984181      -0.02603968      -0.10085526
Pt       8.11208408       1.52076838       4.71301734        2       0.00000000       0.05872942      -0.02829100       0.00535646
Pt       1.33768726       3.87715208       4.65191067        2       0.00000000      -0.04644283       0.03108363      -0.16738086
Pt       4.03607155       3.88860414       4.67602281        2       0.00000000      -0.04667573       0.06125439      -0.14157559
Pt       6.73705723       3.87868534       4.68465257        2       0.00000000       0.01302205       0.02413295      -0.11996404
Pt       9.43831094       3.85470462       4.68721818        2       0.00000000       0.06468928      -0.02889414      -0.09219971
Pt       2.72659292       6.25649517       4.67711331        2       0.00000000       0.01933266       0.12784615      -0.12315946
Pt       5.35278098       6.24842487       4.70049738        2       0.00000000      -0.04968763       0.09552078      -0.02603956
Pt       8.07351714       6.20365538       4.68191237        2       0.00000000      -0.01016004      -0.01881572      -0.11799021
Pt      10.78067075       6.19995449       4.67921613        2       0.00000000       0.04522049      -0.03436172      -0.05783050
Ni       4.03874721       8.53007202       4.68827098        2       1.00000000      -0.01849104      -0.00693407      -0.06641581
Pt       6.69029395       8.54164470       4.66849738        2       0.00000000      -0.08388851       0.04543747      -0.15600893
Pt       9.42908650       8.53462371       4.67446920        2       0.00000000       0.03274255      -0.03584794      -0.09862967
Pt      12.17069091       8.53125005       4.65629707        2       0.00000000       0.15761047      -0.01365428      -0.18935443
Pt      -0.03492318      -0.01889054       6.94947744        1       0.00000000      -0.07798855      -0.03378020      -0.11355604
Pt       2.68503942      -0.01268365       6.96821069        1       0.00000000      -0.07628008       0.00298905      -0.11793709
Pt       5.40077242      -0.01175567       6.97396165        1       0.00000000       0.07541591      -0.00972921      -0.12188771
Pt       8.12011718      -0.02216989       6.95489047        1       0.00000000       0.05569938      -0.08357741      -0.08375170
Pt       1.31121563       2.32105425       6.96783141        1       0.00000000      -0.12330155      -0.00040190      -0.06622329
Pt       4.04421908       2.32560840       6.96797165        1       0.00000000      -0.00723584       0.03638035      -0.11054839
Pt       6.77130544       2.31668794       6.96675796        1       0.00000000       0.10227286      -0.02884094      -0.08159885
Ni       9.42865850       2.31990588       6.98364684        1       1.00000000       0.01390697      -0.01359370      -0.29308680
Pt       2.70627480       4.67441757       6.96709079        1       0.00000000      -0.02015986       0.03900990      -0.11389205
Pt       5.37758754       4.67582423       6.96040531        1       0.00000000      -0.02256402       0.04204655      -0.10762916
Pt       8.09713712       4.62191707       6.97456375        1       0.00000000       0.02280761      -0.04892752      -0.08924432
Pt      10.75893905       4.62232691       7.04264657        1       0.00000000      -0.00512993      -0.04005956       0.04485294
Ni       4.04389009       6.98527253       6.96147346        1       1.00000000      -0.01966588       0.04956815      -0.31127715
Pt       6.69998813       6.98236333       6.95768051        1       0.00000000      -0.06602635       0.01810048      -0.07360756
Pt       9.42926711       6.97202753       6.97157822        1       0.00000000       0.01368982      -0.03802288      -0.07227665
Pt      12.15303093       6.98085753       6.96973483        1       0.00000000       0.06994034       0.00292312      -0.05466363
