64
Lattice="10.446354156016499 0.007902645063455187 0.048441885624111995 5.230020969390291 9.08623380091751 -0.008208844588556015 0.03955263398577954 -0.03057509677788117 9.03633512109348" Properties=species:S:1:pos:R:3:tags:I:1:initial_magmoms:R:1:forces:R:3 unique_id=e6b7786dd5d04d1da8361656e62f1ecb stress="-0.004485400841387009 -4.995432685964906e-05 1.806914798948371e-05 -4.995432685964906e-05 -0.0045441017518713794 8.946679197810624e-06 1.806914798948371e-05 8.946679197810624e-06 -0.0036891298109021364" energy=-408.4355649835343 pbc="T T T"
Pt      -0.06339636       0.02936854       0.05320878        4       0.00000000      -0.08758424       0.03556767      -0.17168681
Ni       2.64789277      -0.03278895       0.08430451        4       1.00000000       0.12634053      -0.07948655       0.10952316
Ni       5.24497772      -0.04850245       0.17094140        4       1.00000000       0.10523657      -0.09114324       0.17325551
Ni       7.81245966      -0.00341141       0.14070182        4       1.00000000      -0.09078080      -0.10360669       0.19615793
Pt       1.26775907       2.27282650       0.11121532        4       0.00000000       0.04238659       0.02695097      -0.05736115
Pt       3.95200869       2.20031550       0.12304486        4       0.00000000       0.09112500      -0.03644465      -0.05222921
Pt       6.61822719       2.18913103       0.16238528        4       0.00000000       0.07630682      -0.10773643      -0.04394500
Ni       9.13100846       2.29362229       0.10795155        4       1.00000000      -0.01517246       0.07202010       0.10887559
Pt       2.55991331       4.57955856       0.10140431        4       0.00000000       0.00452687       0.00892313      -0.10733643
Pt       5.31315811       4.52557535       0.16294610        4       0.00000000       0.19355735      -0.08144192       0.02074585
Ni       7.90584200       4.54688059       0.17542218        4       1.00000000       0.14813690      -0.03387983       0.20670340
Ni      10.38659986       4.58320962       0.10265508        4       1.00000000      -0.15757383       0.09572584       0.09520000
Pt       3.86333256       6.87980090       0.16826506        4       0.00000000       0.00297125      -0.00719028       0.00358086
Pt       6.64820706       6.82750574       0.21394458        4       0.00000000       0.07690501       0.01198891       0.10572207
Ni       9.17747072       6.80321362       0.10332830        4       1.00000000       0.09269017      -0.07848730       0.08283550
Ni      11.72024557       6.85280616       0.17025000        4       1.00000000      -0.02240182       0.06275868       0.10445558
Pt       1.29184885       0.66094072       2.26421568        3       0.00000000      -0.00719153      -0.04227116      -0.04939980
Pt       4.00383713       0.72874796       2.30350746        3       0.00000000       0.04273632       0.03294257       0.10480302
Ni       6.57970868       0.74815569       2.31152591        3       1.00000000       0.07099424       0.00541835       0.04144297
Ni       9.09159197       0.73631413       2.29588437        3       1.00000000      -0.13590582       0.02803748      -0.07175315
Pt       2.66458556       3.03761189       2.32872130        3       0.00000000      -0.02389270       0.02709583       0.05179419
Ni       5.27166219       3.01422995       2.35642518        3       1.00000000       0.02460185      -0.01836978       0.15279122
Pt       7.78464896       3.04597020       2.37898593        3       0.00000000      -0.08476271       0.00186806       0.03515653
Pt      10.35759251       3.04764167       2.28929845        3       0.00000000      -0.12068502       0.02178837      -0.04035178
Pt       4.00143605       5.31650658       2.31438637        3       0.00000000       0.05681643      -0.00057064       0.03816826
Ni       6.61242495       5.30326874       2.30902752        3       1.00000000       0.16457535       0.02680543       0.08357348
Ni       9.09615826       5.32368871       2.29810421        3       1.00000000      -0.12170264       0.05234278       0.07004185
Pt      11.69240023       5.34795811       2.29494790        3       0.00000000      -0.06714086      -0.02582110       0.02834355
Ni       5.23844516       7.56295275       2.27164629        3       1.00000000       0.01264614      -0.02171084       0.01424248
Ni       7.86860989       7.51018660       2.29923298        3       1.00000000       0.07113042      -0.08891054       0.18209366
Pt      10.43725731       7.55648469       2.21562098        3       0.00000000      -0.06854937      -0.02569423       0.10304009
Ni      13.06886778       7.64249023       2.29701438        3       1.00000000      -0.08498096       0.11470898       0.00997605
Pt      -0.10787644       1.54278413       4.49403880        2       0.00000000      -0.15676758       0.05823221      -0.15176275
Pt       2.67265570       1.49954091       4.49208648        2       0.00000000      -0.07590487      -0.02248526      -0.05386984
Ni       5.28962017       1.55086583       4.46942783        2       1.00000000       0.07949709       0.12504090      -0.16809144
Ni       7.82911438       1.54049855       4.49120179        2       1.00000000      -0.09300818       0.05127361      -0.19349627
Pt       1.22793438       3.81676079       4.49352527        2       0.00000000      -0.14687136       0.03700514      -0.05490315
Ni       3.99655815       3.74596071       4.47711238        2       1.00000000       0.11605817      -0.01287238      -0.09669406
Ni       6.57696161       3.74400520       4.48139440        2       1.00000000       0.02818296      -0.02691470      -0.01388479
Ni       9.11013391       3.81551275       4.52036259        2       1.00000000      -0.15061665       0.09020234      -0.11125681
Pt       2.60710031       6.05901620       4.44711896        2       0.00000000      -0.04666897       0.05628920      -0.04585652
Pt       5.35030234       5.97906094       4.42894175        2       0.00000000       0.09865843      -0.04763104      -0.01268594
Ni       7.90828627       5.98562509       4.47187141        2       1.00000000       0.09350081      -0.16753958      -0.15574432
Ni      10.40381991       6.02486534       4.54816644        2       1.00000000      -0.13115334      -0.05249631      -0.00844621
Pt       3.92056354       8.35485243       4.40569676        2       0.00000000      -0.02034363      -0.03043959      -0.17929674
Pt       6.56572221       8.29136521       4.47296466        2       0.00000000      -0.02106404       0.01227176      -0.04494092
Pt       9.16897247       8.22379170       4.53225861        2       0.00000000      -0.03996928      -0.06722068       0.04521210
Pt      11.76846298       8.40451648       4.46673334        2       0.00000000      -0.05805291       0.09883136       0.01702356
Ni       0.00361473       0.00408538       6.64307451        1       1.00000000      -0.09072619       0.02904935      -0.23612398
Ni       2.63302418      -0.02832362       6.72881683        1       1.00000000      -0.03427974       0.06255761      -0.08692517
Pt       5.21757596      -0.04698955       6.79281160        1       0.00000000      -0.03978072       0.00726213       0.15288241
Ni       7.88709557       0.00924118       6.74548817        1       1.00000000       0.03010040       0.02400398      -0.11673728
Pt       1.24057896       2.20289530       6.66489477        1       0.00000000      -0.07499427      -0.02584046       0.02685161
Pt       3.95077214       2.22184138       6.63259143        1       0.00000000       0.06051952       0.03996504      -0.02319879
Pt       6.64728245       2.20770829       6.60991176        1       0.00000000       0.04359599      -0.03474150      -0.06265313
Ni       9.16647184       2.23873229       6.74919537        1       1.00000000      -0.03435314      -0.04587582      -0.05595386
Pt       2.60837670       4.51354274       6.63375728        1       0.00000000       0.06736850      -0.01320906      -0.04354397
Pt       5.29714697       4.51534805       6.63252472        1       0.00000000       0.10193964       0.02091260       0.02633487
Pt       7.98427731       4.53018756       6.69760028        1       0.00000000       0.06646421       0.00578155       0.09164673
Ni      10.45151338       4.53368899       6.73719959        1       1.00000000       0.01499571      -0.01340385      -0.06889032
Pt       3.94984060       6.88636347       6.66836246        1       0.00000000       0.01836184       0.07164279      -0.00024542
Pt       6.64835190       6.85458780       6.69025772        1       0.00000000       0.09171539       0.05316572       0.10194400
Ni       9.17679233       6.78360547       6.72754134        1       1.00000000       0.01898447      -0.03911188      -0.07072133
Pt      11.70452131       6.78261037       6.77735717        1       0.00000000      -0.03074734      -0.02588317       0.06556825
