64
Lattice="10.187546234564431 0.006762422475991767 0.0024769148731018675 5.099629546937546 8.768525273877605 -0.04567112970431078 0.0 0.0 21.445711164718123" Properties=species:S:1:pos:R:3:tags:I:1:initial_magmoms:R:1:forces:R:3 unique_id=aa851954c23b4d568f9ad9f8a3c4d5e1 stress="0.002187038024587331 -8.739915427081342e-05 7.104833746135645e-05 -8.739915427081342e-05 0.0015995294838918248 -0.00014307762250273255 7.104833746135645e-05 -0.00014307762250273255 -0.0053684419925505485" energy=-370.2852489296456 pbc="T T T"
Ni       0.02603687      -0.02328109       0.14547272        1       1.00000000       0.04084453       0.04017362      -0.42549530
Ni       2.50575003       0.00234228       0.12748423        1       1.00000000       0.04499148       0.12260755      -0.35707577
Pt       5.11923079      -0.06569833       0.17783066        2       0.00000000      -0.09196689       0.00389293      -0.77701968
Ni       7.65056597      -0.04578920       0.13805610        1       1.00000000      -0.04934605      -0.07821683      -0.30673904
Ni       1.26950405       2.21345894       0.08618592        1       1.00000000      -0.03747071       0.04810606       0.21971374
Pt       3.78765744       2.25778860       0.15837981        2       0.00000000       0.00386673      -0.05182087      -0.70841761
Ni       6.37210279       2.23650284       0.08725511        1       1.00000000      -0.03246746      -0.02002273       0.17207770
Pt       8.91711121       2.26022080       0.11117257        1       0.00000000       0.04647449       0.19234481      -0.96175056
Ni       2.51837102       4.42044816       0.05867567        1       1.00000000       0.02835283      -0.03086201       0.29983001
Ni       5.11870127       4.42211139       0.05753781        1       1.00000000      -0.08967799       0.03207965       0.25424252
Ni       7.61485333       4.41938225       0.06487926        1       1.00000000       0.09229499       0.02248808       0.19464406
Ni      10.22747823       4.42251438       0.06680724        1       1.00000000      -0.03172342      -0.05445352       0.32293698
Ni       3.79884946       6.53557547       0.01424139        0       1.00000000      -0.04645607      -0.02716687       0.18190749
Ni       6.36591883       6.54084305       0.00000000        0       1.00000000       0.01945912      -0.00233066       0.10633556
Ni       8.94069708       6.50135973       0.12572140        1       1.00000000       0.15897707      -0.08143668      -0.49057837
Ni      11.49120180       6.52243842       0.06246950        1       1.00000000      -0.02863439       0.04573162       0.24300873
Ni       1.30920160       0.77641068       2.12892505        3       1.00000000      -0.01612150       0.11264754       0.10001996
Ni       3.78944973       0.74425248       2.17369479        4       1.00000000      -0.10527585       0.03224337       0.19246315
Ni       6.36862201       0.72743242       2.16234228        4       1.00000000      -0.01561587       0.07367254       0.09205702
Pt       8.85471102       0.72228587       2.18083642        4       0.00000000       0.01169221      -0.12671098       0.20490746
Ni       2.51048315       2.94775971       2.20330146        4       1.00000000      -0.05079376       0.03984215       0.11576663
Ni       5.10694100       2.95724381       2.13243804        3       1.00000000       0.04011347       0.01409187       0.05152811
Ni       7.61660322       2.96193039       2.16006948        4       1.00000000      -0.01993629       0.00937036       0.11912788
Ni      10.23656962       2.98495413       2.15619793        4       1.00000000       0.06766842       0.04210221       0.11385953
Ni       3.79468381       5.04510540       2.09750320        3       1.00000000      -0.06692179      -0.09046403      -0.01247894
Ni       6.37023975       5.05806176       2.07927511        3       1.00000000       0.04739191      -0.03720070       0.04933914
Ni       8.96394275       5.06218649       2.11177382        3       1.00000000       0.04446530      -0.07065010       0.06296268
Ni      11.45465064       5.09884017       2.11004346        3       1.00000000      -0.01589848      -0.03564153       0.06491369
Pt       5.06663769       7.21105726       2.12110899        3       0.00000000      -0.05867103      -0.08224118       0.05720763
Pt       7.69702321       7.31222513       2.08419722        3       0.00000000      -0.05491084      -0.04532543       0.01413276
Ni      10.24328749       7.24295536       2.18004403        4       1.00000000       0.04223579      -0.08771089       0.18413636
Ni      12.68380817       7.25331654       2.10152927        3       1.00000000      -0.03047801      -0.08425917       0.02001142
Pt       0.07240423       1.47420879       4.23616615        5       0.00000000       0.10548784      -0.03694621      -0.00887033
Ni       2.54987660       1.46298745       4.21786429        5       1.00000000       0.03876720      -0.03256909      -0.23065062
Pt       5.07862111       1.41143812       4.16673815        5       0.00000000       0.07404623       0.00056175      -0.12053208
Ni       7.62988326       1.42528948       4.27020209        6       1.00000000      -0.05004614      -0.05733111      -0.17040254
Ni       1.28620106       3.65082216       4.26321816        6       1.00000000       0.04815718       0.01857357      -0.11681770
Ni       3.79155928       3.66223511       4.20762908        5       1.00000000      -0.02505060       0.01894585      -0.20473714
Pt       6.35854875       3.63773111       4.26595817        6       0.00000000      -0.00440026      -0.03796911       0.00139259
Ni       8.96678108       3.68169303       4.20791150        5       1.00000000       0.09908901       0.03811199      -0.20704567
Pt       2.54486799       5.81176226       4.23540912        5       0.00000000       0.00007381       0.04084658      -0.01772053
Ni       5.07501047       5.83371895       4.28867698        6       1.00000000      -0.01013395       0.02132360      -0.03529142
Pt       7.66087437       5.83787377       4.23726431        5       0.00000000       0.00838731       0.04748471       0.01746203
Ni      10.21565894       5.81031829       4.22189312        5       1.00000000       0.01242134       0.02556404      -0.14408363
Ni       3.82044806       7.99081400       4.23511019        5       1.00000000       0.01981065       0.06006839      -0.07067143
Ni       6.36823151       8.00915403       4.22168169        5       1.00000000       0.01687902       0.01619567      -0.12471825
Ni       8.93544834       8.00629333       4.20193028        5       1.00000000       0.00071028      -0.00397893      -0.22266491
Ni      11.47238505       7.98420550       4.16722064        5       1.00000000       0.01607801      -0.02915922      -0.20001303
Pt       0.00278770      -0.10452896       6.44571116        8       0.00000000      -0.25317074       0.05521027       0.22012458
Pt       2.52788029      -0.02794031       6.39149584        8       0.00000000       0.26068985       0.04277439       0.18671953
Pt       5.11771383      -0.04176727       6.34207845        7       0.00000000      -0.22458330      -0.17440263       0.88270500
Pt       7.64152674      -0.08314393       6.40345825        8       0.00000000       0.18202066       0.09616914       0.18987120
Ni       1.27539486       2.22901589       6.39258585        8       1.00000000       0.03315179       0.05929659      -0.04740280
Pt       3.80063631       2.30615612       6.32703387        7       0.00000000      -0.13464785      -0.01832063       0.67767822
Ni       6.36197386       2.21235815       6.40457648        8       1.00000000       0.01591621       0.01189041       0.04635753
Pt       8.89701342       2.28542906       6.31377640        7       0.00000000      -0.14989383      -0.10022205       0.97849714
Ni       2.52056663       4.40533050       6.38597254        8       1.00000000       0.04996691      -0.05736087      -0.21369007
Ni       5.10194456       4.42256478       6.39274372        8       1.00000000      -0.09954271       0.00076463      -0.19046754
Ni       7.58184137       4.37016599       6.41168461        8       1.00000000      -0.02182402      -0.04830402      -0.03221576
Ni      10.27028605       4.35882149       6.36644736        8       1.00000000       0.05034520      -0.02655429      -0.23711403
Ni       3.83382106       6.46748281       6.37216987        8       1.00000000      -0.00841817      -0.00030844      -0.13257171
Ni       6.33743079       6.48584046       6.37155035        8       1.00000000       0.02022437       0.04121476      -0.03913664
Pt       8.95306620       6.43094476       6.44438941        8       0.00000000       0.14009179       0.15191952       0.30159748
Ni      11.49770556       6.48605278       6.38321200        8       1.00000000      -0.05706503       0.05163057      -0.13316243
