64
Lattice="10.731610347377353 0.0026330154228164995 -0.009867892345146125 5.368085431933395 9.308845108446857 -0.008188120721556877 -0.008057100360774725 -0.0030680651876682317 9.361247203284258" Properties=species:S:1:pos:R:3:tags:I:1:initial_magmoms:R:1:forces:R:3 unique_id=00f7c42895c442cc86ab5639d67fbea8 stress="-9.385825167514128e-05 6.115948728735529e-07 3.1568049794957882e-06 6.115948728735529e-07 -9.524318082764632e-05 -4.103595129480151e-06 3.1568049794957882e-06 -4.103595129480151e-06 -5.081173867726996e-05" energy=-427.1629577927116 pbc="T T T"
Pt      -0.05543488       0.03332387       0.09548187        4       0.00000000      -0.14871221       0.09006928       0.06527638
Pt       2.68417531       0.00293744       0.01053871        4       0.00000000       0.00248509       0.00954294      -0.08093687
Pt       5.41888756       0.03290457       0.08026327        4       0.00000000       0.13543064       0.08322406       0.03367266
Ni       8.04653162       0.02609062       0.08894599        4       1.00000000      -0.01530067       0.15423324       0.33926018
Pt       1.30930299       2.32474882       0.08556094        4       0.00000000      -0.04795480      -0.00496144       0.10148282
Pt       4.05931670       2.32647490       0.01528274        4       0.00000000       0.06497248      -0.00423445      -0.06702775
Ni       6.73813969       2.33097874       0.09712028        4       1.00000000       0.25286523       0.04128394       0.37953869
Ni       9.35657947       2.33306651       0.10070275        4       1.00000000      -0.28579725       0.05081551       0.38898156
Pt       2.68522427       4.65231384       0.07691061        4       0.00000000       0.01504529      -0.00588452       0.05743962
Pt       5.42621946       4.61484672       0.08443249        4       0.00000000       0.17465654      -0.12752366      -0.01071351
Ni       8.04970605       4.62449420       0.09436397        4       1.00000000      -0.00670591      -0.23420682       0.36882848
Pt      10.67249393       4.62456293       0.08254605        4       0.00000000      -0.17769933      -0.09450959       0.01736314
Pt       4.01259662       7.01049418       0.08187156        4       0.00000000       0.00484139       0.01000633       0.09041923
Pt       6.71968748       6.95633630       0.08480536        4       0.00000000      -0.00384118      -0.02300732       0.08983590
Pt       9.38419366       6.95881340       0.07793615        4       0.00000000       0.00470678      -0.00065281       0.08259531
Pt      12.08399442       7.01058093       0.00589069        4       0.00000000      -0.01270842       0.02369177      -0.07989972
Pt       1.33381740       0.77977112       2.36511893        3       0.00000000       0.00761300       0.02259166       0.11886502
Pt       4.03237998       0.78556965       2.36474121        3       0.00000000       0.04749418       0.02006199       0.07835182
Pt       6.73875058       0.82604880       2.28599963        3       0.00000000       0.01080563       0.11341407      -0.06234704
Pt       9.35169334       0.82283200       2.28873335        3       0.00000000      -0.05516444       0.08260099      -0.06261910
Pt       2.69731586       3.10633614       2.38300898        3       0.00000000       0.07466458      -0.00085712       0.13928785
Pt       5.40477942       3.09420535       2.34978910        3       0.00000000       0.01899119      -0.04717602       0.04343868
Ni       8.04689946       3.10021551       2.29433268        3       1.00000000      -0.02558476      -0.00322239      -0.19198214
Pt      10.67728097       3.09370999       2.32000563        3       0.00000000      -0.05509555      -0.03234104       0.01795996
Pt       4.03431956       5.41351259       2.37632821        3       0.00000000       0.04324505      -0.08177070       0.11065723
Pt       6.73698877       5.38265648       2.32614832        3       0.00000000       0.03320609      -0.10063486       0.00175528
Pt       9.35549760       5.38597405       2.31747742        3       0.00000000      -0.03490951      -0.06246407       0.01742025
Pt      12.06443571       5.43156037       2.35122335        3       0.00000000      -0.05264353      -0.00849559       0.02700758
Pt       5.36147390       7.75453443       2.35516021        3       0.00000000      -0.00838609      -0.01173682       0.12101314
Pt       8.05001942       7.75501214       2.35666178        3       0.00000000       0.02191813       0.02137740       0.08852134
Pt      10.73881894       7.75919548       2.34734768        3       0.00000000       0.01907645       0.02468376       0.10515502
Pt      13.40969967       7.78069302       2.32947130        3       0.00000000      -0.03526033       0.05352746       0.05570363
Pt      -0.00184098       1.55818218       4.65510091        2       0.00000000      -0.04378638       0.05147877      -0.08606267
Pt       2.71308153       1.57554490       4.71378348        2       0.00000000       0.07557248       0.06992385       0.05260010
Pt       5.33995674       1.59342438       4.68470214        2       0.00000000       0.05750004       0.11378136      -0.00312535
Pt       8.03250454       1.55969746       4.62033508        2       0.00000000      -0.06348747       0.01754503      -0.17005886
Pt       1.37371181       3.87309582       4.65247189        2       0.00000000       0.00731144      -0.03275361      -0.15094386
Ni       4.02010788       3.87245555       4.68020129        2       1.00000000       0.00763947      -0.01161609      -0.03405830
Pt       6.68023867       3.86847334       4.62506348        2       0.00000000       0.02946207      -0.03161844      -0.12483901
Pt       9.37629577       3.87322478       4.62160987        2       0.00000000      -0.05502564      -0.04447013      -0.12300993
Pt       2.68592866       6.18115138       4.67245179        2       0.00000000       0.01584489      -0.00620634      -0.11736821
Pt       5.34388968       6.17153041       4.65321156        2       0.00000000      -0.01418894      -0.06364178      -0.08071371
Pt       8.04523562       6.19362675       4.64520145        2       0.00000000      -0.00359663      -0.07851885      -0.06514105
Pt      10.74481064       6.21205577       4.67268437        2       0.00000000       0.00485893      -0.00129828      -0.05934242
Pt       4.01750028       8.53127728       4.64575841        2       0.00000000      -0.01607442       0.05985497      -0.13154053
Pt       6.71821471       8.54376030       4.67876614        2       0.00000000      -0.01000471       0.03690653      -0.02064850
Pt       9.37924290       8.54883585       4.67853674        2       0.00000000       0.02027781       0.03807293      -0.05328694
Pt      12.07221240       8.52903854       4.67199683        2       0.00000000       0.00591627       0.09142101      -0.03040817
Pt       0.01849981       0.00250932       6.93600561        1       0.00000000       0.01670147       0.02375309      -0.06375982
Ni       2.68705287       0.00883786       6.92381195        1       1.00000000       0.06402041       0.04273752      -0.34369828
Pt       5.32507428       0.01192632       6.92288221        1       0.00000000      -0.13730301       0.11029100      -0.05094804
Pt       8.02128193      -0.01868874       7.00917085        1       0.00000000      -0.08416001      -0.01324034       0.12585196
Pt       1.38950137       2.29875553       6.92549913        1       0.00000000       0.12020419      -0.07325295      -0.01576907
Ni       4.01452543       2.31740917       6.91746432        1       1.00000000      -0.00392805      -0.03980903      -0.32710917
Pt       6.67506433       2.32012347       7.00866744        1       0.00000000      -0.01830576      -0.03692806       0.16438717
Pt       9.38061225       2.32377488       7.01157513        1       0.00000000      -0.00040690      -0.01055183       0.13812563
Pt       2.69039017       4.63846564       6.89819583        1       0.00000000       0.03471454      -0.09670408      -0.11399517
Pt       5.33649663       4.61547547       6.90610315        1       0.00000000      -0.03341384      -0.10308097      -0.12735360
Pt       8.04041016       4.65054129       7.00090150        1       0.00000000      -0.01144788      -0.01925382       0.09747527
Pt      10.74536295       4.67328297       6.92300456        1       0.00000000       0.06217329      -0.00852608      -0.09599473
Pt       3.98885670       6.97945910       6.92068133        1       0.00000000      -0.05396880       0.00701406      -0.09055833
Pt       6.72026136       7.00080996       6.91831972        1       0.00000000       0.02621954      -0.00759936      -0.07761743
Pt       9.40097339       7.00999826       6.91845793        1       0.00000000       0.03727958       0.04405932      -0.05975575
Ni      12.07043058       6.98437157       6.91701878        1       1.00000000      -0.00285174       0.01478543      -0.34563785
