64
Lattice="10.37557313621963 -0.02208377766900144 0.02947781004656696 5.168661455636927 9.005474690465089 0.09146972461536523 0.024068531116258847 0.07234251047941644 8.952097892229151" Properties=species:S:1:pos:R:3:tags:I:1:initial_magmoms:R:1:forces:R:3 unique_id=3d9bf1b5a186471c974dfcfad837b11a stress="-0.010348720984746602 6.331947975928626e-05 -7.298218373228314e-05 6.331947975928626e-05 -0.01047126501105973 -0.00011259302369230372 -7.298218373228314e-05 -0.00011259302369230372 -0.008898455812037458" energy=-406.4759625137086 pbc="T T T"
Pt      -0.09206129       0.00232693       0.07409635        4       0.00000000      -0.13574026       0.08183708      -0.17709919
Ni       2.61968304      -0.01670938       0.08447816        4       1.00000000       0.05733879       0.01346938       0.11547946
Ni       5.21013266      -0.00849842       0.18241012        4       1.00000000       0.11893520      -0.02899894       0.20243056
Ni       7.75378669       0.01778732       0.21282259        4       1.00000000      -0.11546812       0.09268697       0.19626900
Pt       1.28009760       2.32412365       0.15323623        4       0.00000000       0.00730765       0.12074915      -0.11737843
Pt       3.93045088       2.24059290       0.17080349        4       0.00000000       0.06607725       0.02579474      -0.08080115
Ni       6.52299166       2.21306814       0.13970853        4       1.00000000       0.08959906      -0.07091690       0.08858445
Ni       9.03162377       2.25706158       0.20779338        4       1.00000000      -0.10740642       0.03453334       0.17926625
Ni       2.57653374       4.52509748       0.22291668        4       1.00000000       0.01802671       0.01136798       0.15536646
Pt       5.23543740       4.48270635       0.20227933        4       0.00000000       0.20794684      -0.03168309      -0.12183883
Ni       7.81922675       4.49006043       0.21241859        4       1.00000000       0.14483473       0.05425503       0.14318462
Ni      10.33204488       4.52514418       0.15296115        4       1.00000000      -0.09926841       0.16136817       0.05738645
Ni       3.86068339       6.76967666       0.23772657        4       1.00000000       0.03149336       0.03853313       0.12242323
Pt       6.51249768       6.75521480       0.20800688        4       0.00000000       0.02317479       0.08202513      -0.10401774
Ni       9.08230223       6.73761763       0.16893525        4       1.00000000       0.07867330       0.01326173       0.14941755
Pt      11.69034640       6.72672731       0.23993826        4       0.00000000       0.10244294       0.03228667      -0.11832881
Pt       1.25022364       0.72171502       2.27489618        3       0.00000000      -0.07462878      -0.03416406      -0.08464035
Pt       3.94965798       0.76698909       2.26146767        3       0.00000000       0.01264965      -0.12692288       0.08083527
Ni       6.54284609       0.76205686       2.22997238        3       1.00000000       0.01372297      -0.01038151      -0.04646667
Ni       9.02000308       0.71837852       2.28348433        3       1.00000000      -0.12747287      -0.00557904       0.05161371
Ni       2.60458917       3.05160024       2.29028235        3       1.00000000      -0.01916024      -0.01343134       0.06276739
Ni       5.20065065       3.03188891       2.32255477        3       1.00000000      -0.05897606       0.07354548       0.04986861
Pt       7.71590243       3.00279882       2.30648076        3       0.00000000      -0.07956625      -0.01986637       0.05581892
Pt      10.32354628       3.08111237       2.28950578        3       0.00000000      -0.07571833       0.00856059       0.00491430
Pt       3.86710687       5.26519714       2.28695017        3       0.00000000       0.02790974      -0.00848906       0.00288996
Ni       6.50252075       5.22952635       2.33740991        3       1.00000000       0.04872561      -0.09663047      -0.01860004
Ni       9.06317435       5.25245778       2.32814034        3       1.00000000      -0.05166379      -0.01735305       0.04972348
Ni      11.65942389       5.24424246       2.31729255        3       1.00000000      -0.01173890      -0.04211199       0.01712096
Ni       5.12387123       7.52498003       2.33786663        3       1.00000000      -0.11334779       0.03623400      -0.05069181
Pt       7.74865140       7.42298519       2.38553890        3       0.00000000      -0.04103728      -0.02584813       0.11788161
Pt      10.40399205       7.44519409       2.35664767        3       0.00000000      -0.00236131      -0.09835070       0.12311109
Ni      13.00332487       7.55310826       2.32615178        3       1.00000000       0.08941561       0.07399567      -0.01713761
Pt      -0.11273588       1.47693525       4.43810906        2       0.00000000      -0.12976812       0.04224370      -0.06871973
Pt       2.59909598       1.52860242       4.43129159        2       0.00000000      -0.01322281      -0.00310610      -0.13639289
Pt       5.29874291       1.62584338       4.42415472        2       0.00000000       0.06017155       0.05356057      -0.05058369
Ni       7.79416902       1.56354837       4.46254159        2       1.00000000      -0.00027954       0.10508278      -0.03682175
Pt       1.24148333       3.83519619       4.44128446        2       0.00000000      -0.03351846       0.00995013      -0.00832994
Ni       3.90927326       3.79108681       4.45352735        2       1.00000000      -0.00342922       0.06310027      -0.13506809
Ni       6.54213147       3.79512275       4.46769922        2       1.00000000       0.11883037       0.10535311      -0.09707324
Ni       9.04239488       3.80857900       4.48694457        2       1.00000000      -0.06572244      -0.00943033      -0.10862725
Pt       2.59876178       6.06153010       4.43514038        2       0.00000000       0.02027530       0.00184571      -0.02931112
Pt       5.27260409       6.05424827       4.41356845        2       0.00000000       0.05807722       0.02626016      -0.10784599
Ni       7.81309257       5.96005728       4.49868531        2       1.00000000       0.10204526      -0.20213290      -0.14996821
Ni      10.31178369       5.97984643       4.52881626        2       1.00000000      -0.11248386      -0.10391995      -0.07742470
Ni       3.90733324       8.28863055       4.48168727        2       1.00000000       0.03973959      -0.09120329      -0.17690555
Ni       6.44831820       8.29318779       4.53258532        2       1.00000000      -0.06529125       0.09883010      -0.13981988
Pt       9.03135353       8.18624966       4.60664182        2       0.00000000       0.00866872      -0.03330688       0.06966708
Pt      11.73419293       8.32664918       4.47498043        2       0.00000000       0.08298878       0.13416325      -0.02579701
Ni       0.03525231       0.04088098       6.56146558        1       1.00000000      -0.03118655      -0.08274536      -0.21156980
Ni       2.60225088       0.02842532       6.65879343        1       1.00000000      -0.02593712       0.03230295      -0.02776632
Pt       5.15508936       0.01676330       6.73200400        1       0.00000000      -0.04579364      -0.05286037       0.22039184
Pt       7.80309724       0.07142377       6.68620523        1       0.00000000      -0.02765907      -0.04722497       0.14153720
Pt       1.27059440       2.23315775       6.62064425        1       0.00000000      -0.04744932      -0.11267763       0.02415530
Pt       3.91595147       2.26786554       6.61212422        1       0.00000000       0.01201238       0.02047306      -0.00129234
Ni       6.50988688       2.29005357       6.67193254        1       1.00000000       0.00056182       0.00233537      -0.08566420
Pt       9.06282616       2.31350268       6.71879359        1       0.00000000      -0.05959668      -0.00888808       0.17213103
Pt       2.56996519       4.53657551       6.73223258        1       0.00000000      -0.00973753      -0.08036771       0.14177653
Pt       5.24785328       4.51541902       6.60137363        1       0.00000000       0.03135659      -0.00465700      -0.10543049
Pt       7.85565423       4.57244433       6.67228769        1       0.00000000       0.03399349       0.03308780       0.07042886
Ni      10.35767807       4.54282977       6.69954106        1       1.00000000       0.00245154      -0.08605254      -0.11672723
Pt       3.92193801       6.84763109       6.73738221        1       0.00000000       0.01610052      -0.03557262       0.08283161
Pt       6.57239180       6.88293580       6.62009572        1       0.00000000       0.07231608       0.04334982      -0.08926090
Ni       9.07488979       6.76881283       6.73684558        1       1.00000000       0.03413747      -0.09841421       0.04303417
Pt      11.58134452       6.73923752       6.67441630        1       0.00000000      -0.04737046      -0.04315552      -0.06890601
