64
Lattice="10.293872115390316 0.00412741887111889 -0.01634062420071741 5.150510507289607 8.923285442754732 0.0023455194249102293 0.0 0.0 21.508207218465785" Properties=species:S:1:pos:R:3:tags:I:1:initial_magmoms:R:1:forces:R:3 unique_id=82d02d332b8b4abd836ca3b8d72a7403 energy=-376.15061345511583 stress="0.005678823764968417 0.0002352897112280289 5.505325425499468e-05 0.0002352897112280289 0.006090354508049253 2.229313963355005e-05 5.505325425499468e-05 2.229313963355005e-05 -0.0014966395830783765" pbc="T T T"
Ni       0.00265481       0.02336966       0.10470003        1       1.00000000       0.09829034      -0.01509710      -0.06320429
Ni       2.53557798       0.01418338       0.13141820        1       1.00000000      -0.07456175       0.07630510      -0.03279379
Pt       5.14163762      -0.02493978       0.06095112        1       0.00000000      -0.04200163       0.18491371      -0.90369997
Ni       7.75050996      -0.03290496       0.09814706        1       1.00000000      -0.05811449      -0.13399877      -0.19777962
Ni       1.24657843       2.23865874       0.04006503        0       1.00000000      -0.10510634       0.02834261       0.47425224
Pt       3.77906055       2.28818952       0.12141836        1       0.00000000       0.01612990       0.00738443      -0.49032393
Pt       6.47766698       2.23155362       0.04353272        0       0.00000000      -0.00241297       0.00125256      -0.04230348
Ni       9.05392142       2.23239127       0.06525215        1       1.00000000       0.08912024       0.16163643      -0.04150254
Ni       2.56312478       4.48913962       0.01004080        0       1.00000000       0.09315063       0.00628419       0.25407161
Ni       5.11660333       4.49004169       0.11841203        1       1.00000000      -0.06032970       0.09475465       0.10344654
Pt       7.79392594       4.47901476       0.03792990        0       0.00000000       0.03013145       0.05319943       0.01835208
Ni      10.32945167       4.45063506       0.00000000        0       1.00000000       0.04967840      -0.09851987       0.32030209
Ni       3.82641342       6.68725328       0.12731547        1       1.00000000      -0.01227482      -0.05386874       0.11182078
Pt       6.39784529       6.73789646       0.11824371        1       0.00000000      -0.11236022       0.05128088      -0.33066035
Ni       9.01765062       6.67838486       0.09470234        1       1.00000000      -0.10886905      -0.06071006      -0.28576816
Ni      11.61311945       6.66522764       0.00078316        0       1.00000000       0.08567978       0.06084064       0.21442951
Ni       1.29026239       0.74697752       2.11948784        2       1.00000000      -0.01570808       0.01461382       0.04434271
Ni       3.83370127       0.77043089       2.15228226        3       1.00000000       0.01969608       0.00602503       0.19735545
Ni       6.43544740       0.79012405       2.16959237        3       1.00000000      -0.05229109       0.19757022       0.27878599
Pt       9.02301437       0.78741011       2.10502161        2       0.00000000       0.02274042       0.08932991       0.13715392
Ni       2.56058665       2.98205780       2.16512232        3       1.00000000       0.02532118       0.02810264       0.05500122
Ni       5.13486384       2.99881276       2.17426479        3       1.00000000      -0.08223558       0.02425109       0.17486438
Ni       7.73670799       2.99627888       2.17057238        3       1.00000000       0.06783613       0.04747648       0.20496681
Ni      10.29449640       2.97523768       2.13112926        2       1.00000000       0.05958716      -0.00429010       0.11717848
Ni       3.89529616       5.20231931       2.15369236        3       1.00000000       0.15564274      -0.05856464       0.17343246
Ni       6.41765119       5.21185968       2.17419821        3       1.00000000      -0.04530512       0.05791057       0.15624488
Ni       8.97760480       5.17579055       2.16054386        3       1.00000000      -0.09293757      -0.20823591       0.24323147
Pt      11.63981583       5.13786259       2.09269115        2       0.00000000       0.11075588      -0.10791141       0.05506815
Ni       5.14958783       7.41547618       2.16665264        3       1.00000000       0.04659524      -0.10475017       0.20408435
Ni       7.67644631       7.44181432       2.15590077        3       1.00000000      -0.14953496      -0.01975142       0.19829167
Pt      10.27573917       7.39046511       2.12227706        2       0.00000000      -0.00169906      -0.13777469      -0.21272996
Ni      12.90020988       7.41649731       2.09046671        2       1.00000000       0.08890534      -0.07515120       0.09552621
Ni      -0.01270333       1.54443339       4.28195151        5       1.00000000      -0.10112630       0.08825848      -0.21053592
Pt       2.49646031       1.56356575       4.18678272        4       0.00000000      -0.06651763      -0.05191107       0.01507495
Ni       5.15418934       1.53462935       4.24954063        4       1.00000000      -0.03716857       0.05585948      -0.40460270
Ni       7.72581710       1.52945542       4.26870137        5       1.00000000       0.07072015      -0.04186841      -0.29346018
Ni       1.28232706       3.70770469       4.33142802        5       1.00000000       0.01885601      -0.06775688      -0.06872078
Ni       3.83796120       3.77164954       4.24478506        4       1.00000000      -0.01372120       0.12178033      -0.34392997
Pt       6.45001184       3.71906352       4.21798115        4       0.00000000      -0.05107380       0.01902293       0.00455272
Ni       9.00914156       3.70230887       4.25566623        5       1.00000000       0.02020802      -0.11351447      -0.37795344
Ni       2.59568046       5.88940519       4.29493479        5       1.00000000       0.15020585      -0.14892093      -0.19946249
Ni       5.13957311       5.92896199       4.22981561        4       1.00000000       0.03382193      -0.12206562      -0.41531724
Ni       7.69348830       5.92607559       4.23925149        4       1.00000000      -0.06753994      -0.05878398      -0.40523406
Pt      10.30617852       5.83532946       4.30168250        5       0.00000000       0.05436952      -0.04312028       0.08028913
Pt       3.92980086       8.15211142       4.23011739        4       0.00000000       0.14889673      -0.06049427       0.06609151
Ni       6.41885166       8.17031290       4.23363576        4       1.00000000      -0.05985716      -0.03277872      -0.40610234
Pt       8.91867386       8.17937343       4.22307387        4       0.00000000      -0.13751469      -0.01604068      -0.06243939
Pt      11.62378700       8.19937936       4.21910664        4       0.00000000       0.10756953      -0.07658632      -0.01047080
Pt      -0.00006447       0.06710576       6.48446352        7       0.00000000      -0.03826258       0.11618627       0.16876495
Pt       2.55104080       0.04058485       6.50820722        7       0.00000000       0.07171417      -0.11612116       0.34744474
Pt       5.15067684       0.02452770       6.38641570        6       0.00000000      -0.08646783       0.15367272       0.92163490
Pt       7.70387968       0.04451015       6.50104659        7       0.00000000       0.04713779       0.23111340       0.26716506
Ni       1.26464461       2.31000757       6.44751625        6       1.00000000      -0.04056326       0.10591827      -0.27304721
Pt       3.80820950       2.30274528       6.38258887        6       0.00000000       0.05903831       0.05379471       0.39911005
Ni       6.44526986       2.26053187       6.36631756        6       1.00000000      -0.02058989      -0.05480740       0.05626649
Pt       9.01385610       2.35605481       6.42192852        6       0.00000000      -0.00997367      -0.02366572      -0.07928306
Ni       2.49377579       4.46602147       6.43683880        6       1.00000000      -0.08163366      -0.02149613      -0.35161325
Pt       5.15649250       4.43719783       6.46363142        7       0.00000000      -0.09006186       0.01728307       0.01160336
Ni       7.72674502       4.45208593       6.36745886        6       1.00000000       0.02208236       0.06589203      -0.03680597
Ni      10.34467460       4.44752687       6.44945795        6       1.00000000       0.12026036      -0.04265307      -0.18255464
Pt       3.76749601       6.63439071       6.48249435        7       0.00000000       0.05245997      -0.03642838      -0.01060855
Pt       6.43673591       6.66786969       6.35061946        6       0.00000000      -0.01667415       0.01645766       0.37628634
Pt       9.05099069       6.59041931       6.50598610        7       0.00000000      -0.08932715      -0.01484087       0.30972219
Ni      11.57617939       6.64614732       6.45987977        7       1.00000000      -0.01278586      -0.01423529      -0.12330135
