64
Lattice="10.392241681752855 0.006239844759107206 0.018923843129539906 5.201524704953485 8.926246540862074 0.0003699735420524495 0.0 0.0 21.619930717074762" Properties=species:S:1:pos:R:3:tags:I:1:initial_magmoms:R:1:forces:R:3 unique_id=1579b552e02f4e13b0aa6f8433c3698d energy=-379.07632077764316 stress="0.006102085485613829 0.0001248845118605711 0.0003226456177326385 0.0001248845118605711 0.0061808411314132825 -8.845629218932458e-07 0.0003226456177326385 -8.845629218932458e-07 -0.0014023220335500474" pbc="T T T"
Ni       0.00973808       0.00337035       0.13145540        1       1.00000000       0.10332535       0.03704770      -0.03345704
Ni       2.59735198       0.00976918       0.15493199        2       1.00000000      -0.01551977       0.04935802       0.07979121
Ni       5.19527379      -0.01878243       0.11442881        1       1.00000000      -0.03899050       0.10079645      -0.28425880
Ni       7.79368383      -0.05185031       0.14534296        1       1.00000000      -0.05460912      -0.11413275      -0.03571660
Ni       1.30720307       2.23223717       0.06021523        1       1.00000000       0.01674077      -0.02283986       0.48648376
Pt       3.81482509       2.18906258       0.14275632        1       0.00000000       0.01244583       0.02622360      -0.20263844
Pt       6.49960739       2.14915787       0.07522845        1       0.00000000       0.04746903      -0.06948206      -0.03981894
Pt       9.18974805       2.23375964       0.08730141        1       0.00000000       0.04712588       0.07861352      -0.41397665
Ni       2.56411947       4.48112322       0.08036289        1       1.00000000      -0.01004793      -0.06727650      -0.08190346
Pt       5.16357106       4.48622492       0.10296835        1       0.00000000       0.10677369      -0.08667815      -0.80362459
Pt       7.84959542       4.50547395       0.00000000        0       0.00000000      -0.08988672      -0.00916613      -0.24064397
Ni      10.44499376       4.49259105       0.03034541        0       1.00000000       0.08685094      -0.01609594       0.20845860
Ni       3.85700706       6.73645510       0.04870077        0       1.00000000      -0.04753401       0.07453201       0.40291138
Pt       6.50540881       6.79651904       0.15445210        2       0.00000000       0.00526741      -0.01254085      -0.50117956
Ni       9.13115625       6.72973285       0.03246935        0       1.00000000      -0.02738580       0.07596706       0.20622893
Ni      11.71110318       6.70590648       0.03358796        0       1.00000000       0.12531209       0.03446858       0.32016292
Ni       1.33140886       0.77495914       2.16215692        4       1.00000000       0.06873697       0.20209526       0.03137900
Ni       3.87351806       0.76918965       2.21509461        4       1.00000000      -0.08295065       0.13056253       0.29724508
Ni       6.49390575       0.77267538       2.21528242        4       1.00000000      -0.02089154       0.16460185       0.25789539
Pt       9.10362719       0.74902328       2.22367259        4       0.00000000       0.01975661       0.17145053       0.05799817
Ni       2.58103286       2.92441122       2.23710800        4       1.00000000      -0.06038101      -0.16090591       0.34715331
Ni       5.19863198       2.93145894       2.24401749        4       1.00000000      -0.10723832      -0.12063601       0.27712359
Ni       7.78301149       2.95710022       2.22637272        4       1.00000000      -0.00486612      -0.05276818       0.11641603
Ni      10.43936050       2.94977221       2.23969174        4       1.00000000       0.12787707      -0.13884447       0.26550182
Pt       3.88388292       5.20642179       2.22196798        4       0.00000000      -0.02523421      -0.11443011      -0.02528829
Ni       6.51266810       5.20542614       2.21344012        4       1.00000000       0.02186672      -0.05606339       0.14646972
Pt       9.05632706       5.17760600       2.24226295        4       0.00000000      -0.10408599      -0.13531696       0.03313588
Pt      11.69936832       5.15580710       2.17562778        4       0.00000000      -0.13510270      -0.10065280       0.13103722
Ni       5.20268851       7.45324773       2.17333943        4       1.00000000      -0.08228954       0.00598172       0.11001834
Ni       7.79595962       7.47467326       2.18908036        4       1.00000000       0.05181057       0.10395656       0.13262676
Pt      10.40034865       7.49428704       2.10247198        3       0.00000000       0.01105774      -0.03960119      -0.06784949
Ni      13.00568031       7.44611566       2.16261042        4       1.00000000       0.00200890       0.00205621       0.01337298
Ni       0.03953910       1.55492678       4.33681389        6       1.00000000       0.12819623       0.13672455      -0.25070708
Ni       2.58544402       1.54908837       4.31565347        6       1.00000000      -0.05284776       0.13381057      -0.29074386
Ni       5.19927420       1.51556911       4.32495544        6       1.00000000      -0.07457679       0.05330431      -0.37645662
Ni       7.80813205       1.51071934       4.35337539        7       1.00000000       0.05287270      -0.10072659      -0.31025684
Ni       1.31408999       3.65510905       4.35766637        7       1.00000000       0.02030545      -0.18592577      -0.20714530
Ni       3.86312178       3.68297566       4.32252328        6       1.00000000      -0.09373659      -0.13931199      -0.37836828
Pt       6.56045401       3.65017335       4.29991670        6       0.00000000      -0.00837454      -0.00502513      -0.15903719
Ni       9.11754655       3.69831267       4.35074187        7       1.00000000       0.09119665      -0.15160935      -0.34892891
Ni       2.59890130       5.91696506       4.37924337        7       1.00000000      -0.01073373      -0.08973674      -0.11318710
Pt       5.20245113       5.92227910       4.31301164        6       0.00000000       0.09524836      -0.04185773       0.02142908
Ni       7.81973981       5.91726426       4.37201713        7       1.00000000      -0.03235180      -0.01793939      -0.19984151
Pt      10.41067595       5.86135482       4.47367000        8       0.00000000       0.09866890      -0.05755201       0.11702269
Pt       3.90036915       8.18938184       4.33411765        6       0.00000000       0.00525777       0.05768618       0.02478714
Pt       6.51617120       8.25264600       4.24113605        5       0.00000000      -0.02209817       0.27780842      -0.19221088
Pt       9.09057934       8.21960997       4.31947791        6       0.00000000      -0.07360430       0.13552759      -0.06691325
Pt      11.71382395       8.20954781       4.31425291        6       0.00000000       0.01269743       0.03493486      -0.09526012
Pt       0.00928237       0.01245612       6.58855219       11       0.00000000       0.00584781       0.14234523       0.23223615
Pt       2.60395339       0.00256147       6.60332525       11       0.00000000       0.05620415       0.02540352       0.21696720
Pt       5.21705945      -0.05182760       6.60163064       11       0.00000000      -0.04593912       0.14012523       0.30446685
Pt       7.79321019      -0.03065102       6.61993072       11       0.00000000      -0.01336068       0.24741073       0.25896055
Ni       1.28945134       2.25711880       6.50738638       10       1.00000000      -0.07898213       0.02994673      -0.34513783
Pt       3.89098967       2.23394639       6.43165378        9       0.00000000      -0.00557437      -0.01582327       0.30910822
Ni       6.52721170       2.22665404       6.46903779       10       1.00000000       0.04085099      -0.12661071      -0.00519271
Pt       9.11187581       2.32227133       6.42891399        9       0.00000000      -0.04224135      -0.10737561       0.34848284
Pt       2.51423673       4.49702921       6.51572927       10       0.00000000       0.07994768      -0.11945009      -0.18178079
Pt       5.22282457       4.42912774       6.49003704       10       0.00000000      -0.10165805      -0.08915764       0.70056087
Ni       7.84429184       4.46351321       6.44629164        9       1.00000000       0.02562404       0.08270143       0.00647148
Ni      10.38865213       4.47006134       6.55715063       11       1.00000000      -0.07250256      -0.06547170      -0.17877237
Ni       3.88272144       6.67482123       6.54481170       10       1.00000000       0.00845110      -0.04930201      -0.19509044
Pt       6.56644851       6.64481487       6.49952893       10       0.00000000       0.12103006      -0.07968764       0.48387617
Ni       9.13414145       6.63186544       6.55677673       11       1.00000000      -0.04574194      -0.09055729      -0.15300979
Ni      11.69485159       6.66632100       6.56800599       11       1.00000000      -0.01548706       0.09511095      -0.16738267
