64
Lattice="10.30975870860773 -0.01270080146990753 -0.016492770350079625 5.143880137582501 8.85608103263937 -0.07086600347377568 0.0 0.0 21.6000900512847" Properties=species:S:1:pos:R:3:tags:I:1:initial_magmoms:R:1:forces:R:3 unique_id=7bbedd1299a044bea91d65db74498d8c energy=-375.23397942457245 stress="0.005150971060775036 -1.5575878144586956e-05 2.2026660588646373e-06 -1.5575878144586956e-05 0.005192431234748798 -0.0004547267138230713 2.2026660588646373e-06 -0.0004547267138230713 -0.0022490456156343576" pbc="T T T"
Ni      -0.00077171       0.01836457       0.18581706        2       1.00000000       0.10911309      -0.02633198      -0.25908814
Ni       2.57241382      -0.00421756       0.21204946        2       1.00000000      -0.03291568       0.01059965      -0.14090280
Ni       5.15059640      -0.02812317       0.16711831        2       1.00000000       0.00304764       0.19311279      -0.42007687
Ni       7.73949921      -0.06132105       0.08391143        1       1.00000000      -0.06198726      -0.10073808       0.22962200
Ni       1.25310696       2.21347381       0.09586569        1       1.00000000      -0.09338882      -0.00290632       0.40700351
Pt       3.79176830       2.20664619       0.09359328        1       0.00000000       0.03934287      -0.02851854      -0.01720610
Pt       6.46384416       2.14439078       0.17023322        2       0.00000000       0.03126816      -0.05250290      -0.51130295
Ni       9.05959885       2.19411252       0.12567871        1       1.00000000       0.05520264       0.11168668      -0.09844458
Ni       2.55062229       4.43371744       0.03281286        0       1.00000000      -0.01364837      -0.00386203       0.17216823
Ni       5.13525931       4.42476374       0.12313052        1       1.00000000       0.09438382      -0.05829033      -0.17381887
Pt       7.80297224       4.42438998       0.06769300        1       0.00000000       0.01955012      -0.02813722      -0.03816889
Ni      10.33043428       4.40286705       0.02310654        0       1.00000000       0.00889687      -0.08879775       0.18987191
Ni       3.82199848       6.65354873       0.12721855        1       1.00000000      -0.03217572       0.08223435      -0.10398718
Pt       6.41157999       6.67913504       0.13419135        1       0.00000000      -0.04241849       0.00751260      -0.58726588
Ni       9.03426951       6.64348470       0.01330399        0       1.00000000      -0.09748295      -0.02849338       0.10414400
Ni      11.60294575       6.62994491       0.00000000        0       1.00000000       0.09760567      -0.01615801       0.18425300
Ni       1.29745107       0.74206426       2.16419788        4       1.00000000      -0.00013739       0.10407763       0.01098899
Ni       3.85386248       0.73977648       2.19541743        4       1.00000000       0.03988412       0.05173178       0.19658216
Ni       6.43516507       0.72355328       2.23449818        4       1.00000000      -0.01085667       0.08155432       0.25738163
Pt       9.01537616       0.74778699       2.16381532        4       0.00000000      -0.06175428       0.04038420       0.08723234
Ni       2.55442467       2.90976513       2.18480745        4       1.00000000      -0.06385277      -0.02571302       0.09841266
Ni       5.13960693       2.90941783       2.21505849        4       1.00000000      -0.10884313      -0.12525143       0.18787912
Ni       7.75397404       2.94976670       2.21392383        4       1.00000000       0.12258949       0.08655541       0.17089687
Ni      10.29434622       2.91933191       2.16134558        4       1.00000000       0.02490671       0.01158276       0.06364711
Pt       3.89871026       5.14330864       2.18729444        4       0.00000000       0.00753429      -0.12512569       0.06044257
Ni       6.45979054       5.14716285       2.19428292        4       1.00000000       0.07582599       0.03065141       0.18453511
Ni       8.99011631       5.12495246       2.20756377        4       1.00000000      -0.06370370      -0.09232942       0.24098505
Pt      11.56497128       5.10671845       2.11459316        3       0.00000000       0.01656712      -0.09107413      -0.00726112
Ni       5.13543506       7.36999348       2.14520829        3       1.00000000      -0.05596444      -0.01275329       0.06593056
Ni       7.72138428       7.35782909       2.14221132        3       1.00000000       0.04853153      -0.08647720       0.03958039
Pt      10.27093228       7.36839071       2.05730041        3       0.00000000      -0.05345083      -0.06682445      -0.04730630
Ni      12.87665481       7.36290869       2.09550627        3       1.00000000      -0.04005133       0.03145832       0.00115407
Ni      -0.02294246       1.48768810       4.33626069        6       1.00000000      -0.01187084       0.02795860      -0.23783149
Pt       2.59576711       1.50456948       4.29815024        6       0.00000000      -0.02080990      -0.01419513      -0.10003411
Ni       5.14691986       1.46376664       4.30647838        6       1.00000000       0.02679390       0.04574564      -0.32309199
Ni       7.74398492       1.46243795       4.31034286        6       1.00000000       0.06430122       0.05845632      -0.27309730
Pt       1.23140282       3.70432193       4.38839670        7       0.00000000      -0.07645527      -0.00828423      -0.02520277
Ni       3.85900387       3.67925629       4.32404517        6       1.00000000       0.05134251       0.05014530      -0.18149778
Pt       6.45900493       3.67509073       4.22646693        5       0.00000000      -0.02771655       0.01673577      -0.01125302
Ni       9.01105706       3.67698213       4.30340948        6       1.00000000      -0.00858319       0.00636418      -0.29163864
Ni       2.55504861       5.84295468       4.33532734        6       1.00000000       0.01400785      -0.05916464      -0.08769882
Ni       5.12851314       5.84176237       4.29242806        6       1.00000000       0.02386858      -0.00705568      -0.20754642
Ni       7.76789420       5.81519019       4.27934115        6       1.00000000       0.08861114      -0.06189012      -0.26378643
Ni      10.26732324       5.83363237       4.35172010        7       1.00000000      -0.06126775       0.00620703      -0.09967573
Pt       3.83713793       8.08080989       4.25855682        6       0.00000000       0.03207683       0.00539035       0.02669770
Pt       6.41322030       8.06037778       4.17841652        5       0.00000000      -0.02658687       0.02942696      -0.14347415
Pt       9.00324763       8.02525195       4.26371435        6       0.00000000      -0.04265124      -0.01862462       0.00420328
Pt      11.60338576       8.06915692       4.27855318        6       0.00000000      -0.01238110       0.01624323      -0.00545444
Pt      -0.02335942       0.00519059       6.58189567       10       0.00000000       0.11743608       0.07135434       0.29722051
Pt       2.58925170       0.01017874       6.60009005       10       0.00000000       0.05108495       0.02854301       0.37310372
Pt       5.18204331      -0.11250830       6.58482612       10       0.00000000      -0.06241533       0.05800457       0.45777469
Ni       7.71885112      -0.05376953       6.52057788        9       1.00000000       0.02385197       0.13396788      -0.01909721
Ni       1.29257740       2.23615137       6.51128060        9       1.00000000      -0.00960830       0.01822997      -0.14992840
Ni       3.82699361       2.20248340       6.42735925        8       1.00000000       0.03784825      -0.08976137       0.14129973
Pt       6.44770979       2.14895728       6.42012914        8       0.00000000      -0.00523776      -0.04222928       0.53355201
Pt       9.05308022       2.25930513       6.47080597        9       0.00000000       0.06326929       0.17182300      -0.01526892
Ni       2.50940827       4.36732157       6.48763224        9       1.00000000      -0.04595773       0.03448468      -0.13478288
Pt       5.06810111       4.34578415       6.48369153        9       0.00000000      -0.07970135       0.08202425       0.19889967
Ni       7.77130188       4.40326260       6.39257002        8       1.00000000       0.07048918       0.03868258       0.00259768
Ni      10.30569294       4.43068643       6.46982573        9       1.00000000      -0.04785709       0.11174507      -0.21057267
Pt       3.73130518       6.58282969       6.49983703        9       0.00000000       0.11566000      -0.16776921       0.10702160
Pt       6.48952241       6.54065563       6.39515092        8       0.00000000      -0.10153664      -0.05931503       0.51521267
Ni       9.04494801       6.52598109       6.44783565        8       1.00000000       0.01323969      -0.07145396      -0.19899069
Ni      11.54992609       6.53486560       6.45294081        9       1.00000000      -0.11486283      -0.19464615      -0.22554099
