64
Lattice="10.294238695495935 0.00966553875327774 -0.034637761153477505 5.155489949849569 8.814107366117407 -0.10543435836090975 0.0 0.0 21.53971352449904" Properties=species:S:1:pos:R:3:tags:I:1:initial_magmoms:R:1:forces:R:3 unique_id=708c1e78e0484c3c9f6132ab19ac1feb energy=-373.20182800136524 stress="0.005685796826800061 7.373684615777541e-05 -0.00013515415666453496 7.373684615777541e-05 0.004370910855652856 -0.00018489636073532937 -0.00013515415666453496 -0.00018489636073532937 -0.001427765129588504" pbc="T T T"
Ni       0.01448534      -0.07050853       0.20047067        2       1.00000000       0.09340077      -0.04614084      -0.12973022
Ni       2.53625860      -0.05543141       0.20679400        2       1.00000000      -0.00846078      -0.04587055      -0.05723544
Pt       5.14601154      -0.07569682       0.15108649        2       0.00000000      -0.06355637      -0.03219120      -0.92517553
Ni       7.73519785      -0.05935205       0.16685830        2       1.00000000      -0.06979842      -0.09391573      -0.21614242
Pt       1.27784536       2.20685610       0.10432576        1       0.00000000      -0.04584430      -0.04661602       0.09277859
Pt       3.82821334       2.21995688       0.17900419        2       0.00000000       0.00483048      -0.01535061      -0.53657578
Pt       6.45515462       2.21972866       0.07989848        1       0.00000000      -0.06374375      -0.00768872      -0.25633699
Pt       9.01925601       2.25159123       0.09653778        1       0.00000000       0.08470844       0.11849267      -0.61471063
Ni       2.54618986       4.46445315       0.06811441        1       1.00000000      -0.01956932       0.07728182       0.40334654
Pt       5.14084087       4.52770850       0.05530840        1       0.00000000      -0.05263809       0.14027550       0.05959152
Ni       7.72770130       4.46401931       0.02534132        0       1.00000000      -0.05313492       0.10069109       0.15171974
Ni      10.31691203       4.46253296       0.01880106        0       1.00000000       0.07400724       0.07925250       0.29640442
Ni       3.83771763       6.63695862       0.04626000        0       1.00000000      -0.02804571       0.09497073       0.36610479
Ni       6.45136939       6.64581560       0.04565294        0       1.00000000       0.01889424       0.09255832       0.35466703
Ni       8.98003248       6.57483985       0.07968911        1       1.00000000      -0.08630417       0.03954128      -0.12402859
Ni      11.62551408       6.56287670       0.00000000        0       1.00000000       0.06985507      -0.01714867       0.29904321
Ni       1.30671014       0.70450493       2.24496814        4       1.00000000       0.04286469       0.04186056       0.29825379
Ni       3.79192755       0.72540826       2.22049309        4       1.00000000      -0.26147016      -0.02288552       0.10066289
Ni       6.45322275       0.73146265       2.21999344        4       1.00000000       0.10399535      -0.01143402       0.16375150
Pt       9.01895209       0.71499511       2.20612444        4       0.00000000       0.13095771       0.12205549      -0.07664390
Ni       2.54841712       2.94843083       2.26804933        5       1.00000000      -0.03310457       0.04818499       0.27279717
Ni       5.13250850       2.95536275       2.20956334        4       1.00000000      -0.07967485       0.17623446       0.14802988
Ni       7.69954187       2.92830448       2.21230288        4       1.00000000      -0.02926607      -0.09253894       0.14337023
Ni      10.34093116       2.93764521       2.23343552        4       1.00000000       0.19588653      -0.03116252       0.33454926
Ni       3.81777198       5.12518054       2.16977664        4       1.00000000      -0.13149320      -0.05451581       0.12171153
Ni       6.42938417       5.14976509       2.14601138        3       1.00000000       0.02297277       0.04736392       0.06528063
Pt       8.98284232       5.07415920       2.15659873        4       0.00000000       0.00100047      -0.13431205       0.05128941
Ni      11.62820908       5.09228134       2.14075107        3       1.00000000       0.11858692      -0.23802853       0.17661844
Ni       5.17437816       7.29408579       2.09815422        3       1.00000000       0.00658652      -0.12540225       0.00995437
Ni       7.65599146       7.33599418       2.09329816        3       1.00000000      -0.14326072      -0.05271717       0.07941814
Pt      10.37087942       7.27438367       2.16006674        4       0.00000000       0.18624626      -0.14280676      -0.04588400
Ni      12.88304957       7.27913293       2.07827618        3       1.00000000       0.12445369      -0.19606441       0.02424493
Ni       0.04225676       1.46715239       4.32912677        7       1.00000000       0.15809933       0.04507089      -0.22047756
Ni       2.49841935       1.46972511       4.29493389        7       1.00000000      -0.08596356       0.07067432      -0.28071563
Pt       5.14234259       1.44454867       4.22647859        6       0.00000000      -0.10484783      -0.03975678      -0.14869238
Ni       7.71520227       1.44088165       4.30449323        7       1.00000000       0.02445084      -0.06925949      -0.26057744
Ni       1.28066722       3.63859881       4.33049905        7       1.00000000       0.04139252       0.02812172      -0.13947241
Ni       3.77956573       3.66859541       4.27531263        7       1.00000000      -0.19664539       0.06358356      -0.32449940
Pt       6.50037005       3.64835568       4.30040082        7       0.00000000       0.08680808      -0.02799840      -0.08839760
Ni       9.05270340       3.66503855       4.27702107        7       1.00000000       0.23601155       0.03678516      -0.16842193
Ni       2.52170277       5.79090098       4.31189840        7       1.00000000      -0.07957793      -0.12376674      -0.19402410
Pt       5.13162613       5.83119480       4.28329008        7       0.00000000       0.00600673      -0.02356454      -0.13097305
Ni       7.71038046       5.82502535       4.28325489        7       1.00000000      -0.04210672       0.01461396      -0.15230890
Ni      10.33621661       5.78587823       4.30049365        7       1.00000000       0.14768610      -0.08648222      -0.05216564
Pt       3.82331189       8.02384923       4.22320161        6       0.00000000      -0.07670577       0.01087818       0.00819340
Ni       6.41946095       8.05453263       4.21104648        6       1.00000000      -0.13966877       0.09413183      -0.33726728
Pt       8.92490419       8.00073924       4.17959273        6       0.00000000      -0.15159456       0.02851127      -0.08203037
Ni      11.59448968       7.99260410       4.22947605        6       1.00000000       0.01809985      -0.13425973      -0.08787682
Pt      -0.00947278      -0.09560592       6.53971352       10       0.00000000       0.03081274       0.14102565       0.21983461
Pt       2.53077453      -0.05116972       6.52413406       10       0.00000000       0.01105981       0.14984853       0.26416039
Pt       5.14992526      -0.06941624       6.43447001        9       0.00000000       0.03644176       0.00066227       0.95943919
Pt       7.69682354      -0.09256278       6.51662763       10       0.00000000      -0.09249922       0.14864901       0.37636138
Ni       1.26413226       2.20732925       6.38076597        9       1.00000000       0.02662833       0.11080582      -0.04885231
Pt       3.81205595       2.27407433       6.39890743        9       0.00000000      -0.09644320       0.13251088       0.47398470
Ni       6.42418532       2.19515336       6.39895223        9       1.00000000      -0.00190740       0.00346702       0.22339619
Pt       9.00445742       2.25201224       6.33566512        8       0.00000000       0.02161453      -0.08764196       0.54294304
Ni       2.52462093       4.40094968       6.42477827        9       1.00000000       0.00329639       0.02299178      -0.44115577
Ni       5.14019698       4.39105310       6.38303821        9       1.00000000      -0.07350962       0.01687025       0.11755713
Ni       7.67142080       4.36030714       6.44070963        9       1.00000000      -0.06592308      -0.02594779      -0.07381277
Ni      10.34187459       4.35942650       6.40063901        9       1.00000000       0.17022276      -0.05058928      -0.34472609
Ni       3.83210815       6.48712771       6.44504106        9       1.00000000      -0.05358891      -0.14747389      -0.24022646
Ni       6.41011673       6.50349266       6.43112493        9       1.00000000       0.03077077      -0.01666580      -0.19571929
Pt       8.99755642       6.42657599       6.43368029        9       0.00000000       0.09001705      -0.07594524       0.10396666
Ni      11.59887477       6.48933970       6.38614981        9       1.00000000       0.01168112       0.01817673      -0.30856800
