64
Lattice="10.35378892516024 -0.03190034726360622 0.04156014395425107 5.149267951460289 9.013912719278848 0.03355371224074735 0.033933715441510255 0.012043103534459391 8.912863740320311" Properties=species:S:1:pos:R:3:tags:I:1:initial_magmoms:R:1:forces:R:3 unique_id=7c4d90e271324e15ab4c11faa759e72d stress="-0.0013853542463304752 2.0399318010623706e-05 -1.3210511494559892e-05 2.0399318010623706e-05 -0.0013971759927998983 -3.938068364789192e-06 -1.3210511494559892e-05 -3.938068364789192e-06 -0.0012193192902363592" energy=-404.73931901962766 pbc="T T T"
Pt       0.01121137      -0.03252326       0.01994058        4       0.00000000       0.03930020       0.02459358      -0.13351133
Ni       2.59595794      -0.03490241       0.17043397        4       1.00000000       0.01849276      -0.02059619       0.09550146
Ni       5.18480629      -0.03035421       0.16130170        4       1.00000000      -0.00027304       0.01001335       0.03079571
Pt       7.71778425      -0.03538034       0.10499979        4       0.00000000       0.01330156      -0.02204939      -0.12792603
Ni       1.26926039       2.24973723       0.17144616        4       1.00000000      -0.02890356       0.02360848       0.05696587
Pt       3.91855392       2.20147888      -0.02167185        4       0.00000000       0.06190390      -0.01042533      -0.15278483
Ni       6.53273145       2.25386209       0.21719266        4       1.00000000       0.04400930      -0.00943050       0.08752943
Ni       9.00848305       2.22745198       0.13062139        4       1.00000000      -0.00390688      -0.02477758       0.00990769
Pt       2.63772539       4.58712705       0.00362388        4       0.00000000       0.04647484       0.01859402      -0.17045587
Ni       5.19227635       4.52679574       0.20595874        4       1.00000000       0.01820879       0.00667311       0.08372024
Ni       7.72875562       4.47338581       0.12493253        4       1.00000000      -0.00795580      -0.02815978      -0.02041429
Pt      10.25611677       4.50602873       0.16366269        4       0.00000000      -0.01353188       0.01055802      -0.11544009
Ni       3.88458575       6.76699541       0.13925862        4       1.00000000       0.03881144       0.02128912       0.04915032
Ni       6.44782888       6.73532734       0.18776631        4       1.00000000       0.01877554       0.00594421       0.06723025
Ni       9.01969152       6.74745624       0.22941761        4       1.00000000      -0.02263949      -0.02260300       0.11810198
Ni      11.63563782       6.75933060       0.10732757        4       1.00000000       0.00582416      -0.00265320      -0.05224463
Pt       1.22897584       0.69338096       2.27102450        3       0.00000000      -0.04981005      -0.00193001       0.02108139
Pt       3.93254270       0.75013484       2.26595372        3       0.00000000      -0.02293728      -0.01726473       0.02142553
Ni       6.54529745       0.73232568       2.27627753        3       1.00000000       0.02621862      -0.00280578      -0.02203246
Ni       9.00637063       0.68142349       2.27961566        3       1.00000000      -0.00663455       0.00017224      -0.06415626
Pt       2.57233412       3.01911307       2.27289948        3       0.00000000       0.01860135       0.00297064      -0.07845529
Pt       5.24694626       2.97527462       2.25453377        3       0.00000000       0.00680171       0.00192860       0.03986627
Ni       7.77341314       2.96229786       2.23481525        3       1.00000000      -0.00376041      -0.01867117       0.04363972
Pt      10.23133715       2.96779086       2.31122813        3       0.00000000       0.00374227      -0.02447131       0.02594071
Ni       3.90270125       5.32693422       2.24598009        3       1.00000000       0.01782717       0.01157863      -0.00004136
Pt       6.49318542       5.23880503       2.20769193        3       0.00000000       0.03503746      -0.03581998       0.09408576
Ni       9.01712125       5.22372996       2.30571650        3       1.00000000       0.02278357      -0.00082369       0.04888594
Pt      11.69623818       5.27884664       2.28959600        3       0.00000000       0.03636869       0.02540483      -0.06451387
Ni       5.08563278       7.50948270       2.26232824        3       1.00000000       0.01084306       0.00336051      -0.02183676
Pt       7.73073812       7.46397799       2.27688221        3       0.00000000       0.01124820       0.01072431       0.14813149
Pt      10.43932559       7.52737454       2.23990224        3       0.00000000       0.01679170       0.01551542       0.05677178
Ni      12.99782977       7.52763548       2.31940939        3       1.00000000       0.01725097       0.02696705      -0.01763084
Pt       0.00885898       1.48807896       4.48309834        2       0.00000000       0.02276128       0.05128355      -0.01521427
Ni       2.58868328       1.50040946       4.44417240        2       1.00000000      -0.02253560       0.01775458      -0.02675987
Ni       5.20301400       1.48442667       4.46472095        2       1.00000000       0.01591865      -0.00646437      -0.01866412
Pt       7.75881696       1.41506389       4.41040486        2       0.00000000       0.02283946       0.01287759       0.00243614
Ni       1.28506655       3.74430837       4.43403492        2       1.00000000       0.00273135      -0.01381850      -0.07356678
Pt       3.85970459       3.72402895       4.47834385        2       0.00000000      -0.01685796       0.03850789      -0.08340793
Pt       6.55479936       3.76896088       4.47719932        2       0.00000000      -0.05061108       0.00584737       0.07396732
Ni       9.05617605       3.72660010       4.47341790        2       1.00000000      -0.03562831      -0.02855302      -0.02904329
Pt       2.58366229       6.10837206       4.48521158        2       0.00000000       0.01067454       0.02522203      -0.10307036
Pt       5.19066602       6.10404409       4.39804640        2       0.00000000      -0.00355413       0.02234434       0.04177135
Ni       7.77016349       6.00196281       4.48269859        2       1.00000000      -0.00579858       0.03138788       0.06921280
Pt      10.30666570       5.96956461       4.44153387        2       0.00000000      -0.01644470       0.02192446      -0.04428952
Ni       3.87359307       8.28299219       4.44521493        2       1.00000000       0.01852534       0.02533709      -0.11933856
Ni       6.44550333       8.27665099       4.48230088        2       1.00000000       0.01853915       0.03613717       0.03496463
Pt       9.03108542       8.28955202       4.49224542        2       0.00000000       0.01814356       0.03213170       0.07155351
Ni      11.66255981       8.25394590       4.47511695        2       1.00000000      -0.01859599       0.00966941      -0.05548168
Ni      -0.04502459      -0.00951999       6.49778809        1       1.00000000      -0.02500454      -0.04584302      -0.08997723
Pt       2.58626862       0.03980918       6.66714978        1       0.00000000      -0.00639232      -0.01061931       0.12585007
Pt       5.30154926      -0.02734297       6.65240206        1       0.00000000       0.07265344      -0.02980815       0.04466864
Ni       7.84902206      -0.06300358       6.54027409        1       1.00000000       0.02565331      -0.03071909      -0.14147185
Pt       1.33647595       2.28653954       6.65799796        1       0.00000000       0.02374232       0.02156431       0.09663569
Ni       3.90565611       2.23055320       6.49159712        1       1.00000000       0.05892246      -0.07518107      -0.16064956
Pt       6.56376916       2.25183608       6.71800230        1       0.00000000       0.02524278       0.01169485       0.13114669
Ni       9.07658977       2.20321604       6.64408376        1       1.00000000       0.02364251      -0.05438592       0.02120975
Ni       2.56425101       4.55018136       6.51132315        1       1.00000000      -0.10239319       0.02342419      -0.14468239
Pt       5.10640743       4.51817340       6.73847440        1       0.00000000      -0.14122123      -0.02869277       0.09877492
Ni       7.78121475       4.49228172       6.63507400        1       1.00000000      -0.03899119       0.04677814      -0.00734983
Pt      10.34494988       4.45036508       6.56638922        1       0.00000000      -0.05490194      -0.07892404       0.06047273
Ni       3.83071639       6.81637303       6.63547328        1       1.00000000      -0.06885514       0.00911893       0.00844778
Pt       6.40007389       6.78776537       6.68934334        1       0.00000000      -0.05659951       0.01059307       0.08841396
Pt       9.06189124       6.71120045       6.73932918        1       0.00000000      -0.03266132      -0.00635294       0.13285491
Ni      11.70061980       6.75524759       6.66314731        1       1.00000000      -0.03120774      -0.02165080      -0.04670125
