64
Lattice="10.25660615606746 -0.020121587629425914 0.0408999465436383 5.110877271982173 8.821277193147704 -0.000477163335412516 0.03339466651300747 -0.0197302936077211 8.775489082748996" Properties=species:S:1:pos:R:3:tags:I:1:initial_magmoms:R:1:forces:R:3 unique_id=b3f3daa1533244368ce89823c89aafc6 stress="0.00020278212767253084 5.732938465288755e-06 -2.6386806496609128e-05 5.732938465288755e-06 0.00020171397891427523 2.1456876231360336e-07 -2.6386806496609128e-05 2.1456876231360336e-07 0.00020339500678617783" energy=-395.11591409720006 pbc="T T T"
Ni       0.01627962      -0.00860672       0.18056046        4       1.00000000       0.00895752       0.02007086       0.34627059
Ni       2.53565133       0.00473385       0.22082295        4       1.00000000      -0.02978779       0.05276165       0.42986626
Pt       5.12242908      -0.05425297       0.16293478        4       0.00000000       0.01007689      -0.06262424       0.32529809
Ni       7.72065341      -0.07557198       0.21895588        4       1.00000000       0.04021693      -0.07875179       0.36586369
Ni       1.28758744       2.21275360       0.10963558        4       1.00000000       0.03860804       0.05483873       0.24885622
Pt       3.76441469       2.25689983       0.19836748        4       0.00000000      -0.00942020       0.09767711       0.20884290
Pt       6.40961087       2.20791454       0.13213299        4       0.00000000       0.06811745       0.09320542       0.02085821
Pt       9.06588134       2.19031047       0.15242790        4       0.00000000       0.13073345      -0.03055961       0.14292507
Ni       2.55138649       4.44616195       0.06974545        4       1.00000000       0.06484067       0.09924348       0.03037165
Ni       5.07942173       4.44199278       0.11800279        4       1.00000000      -0.05559847       0.10300660       0.23833239
Pt       7.72907497       4.45792702       0.11802749        4       0.00000000       0.06514860       0.08143395      -0.05290638
Ni      10.30510571       4.42361376       0.10372048        4       1.00000000       0.16906162       0.07028126       0.08074625
Ni       3.79905863       6.60338618       0.10779211        4       1.00000000      -0.05779550      -0.04532842       0.19477444
Pt       6.35519294       6.65991847       0.18788577        4       0.00000000      -0.05385971       0.02198362       0.06205345
Ni       8.98391717       6.59311189       0.09792743        4       1.00000000       0.03023500       0.00344310       0.05529283
Ni      11.56449678       6.56249376       0.10087998        4       1.00000000       0.12153315      -0.04579468       0.03752898
Ni       1.30192245       0.72581184       2.19424216        3       1.00000000      -0.04797618      -0.01027431       0.05026707
Ni       3.83045507       0.74387348       2.24283965        3       1.00000000       0.07142684      -0.00495073       0.03839119
Ni       6.41651607       0.75844814       2.27177693        3       1.00000000      -0.07358181       0.08905110       0.09214023
Pt       8.99662717       0.70659941       2.28499606        3       0.00000000      -0.01139397       0.15173251      -0.02141011
Ni       2.55376090       2.94110232       2.24378029        3       1.00000000       0.03292959       0.04666234       0.02754914
Ni       5.11763475       2.95647627       2.26811641        3       1.00000000      -0.10832431       0.04466846       0.05130441
Ni       7.69692496       2.94923986       2.28264787        3       1.00000000       0.10259091       0.02789632      -0.00224931
Ni      10.28026216       2.92266294       2.29220463        3       1.00000000       0.01999305      -0.04626851       0.14472059
Ni       3.87987157       5.13431131       2.21578304        3       1.00000000       0.09341732      -0.02922882       0.05117860
Ni       6.38831849       5.13621895       2.25943050        3       1.00000000      -0.02950506       0.06248655      -0.03272225
Ni       8.94702191       5.09758326       2.27478553        3       1.00000000      -0.06214903      -0.17864128       0.14233389
Pt      11.58246888       5.06012126       2.25293018        3       0.00000000       0.10906870      -0.08709282       0.10143299
Ni       5.12642942       7.31194110       2.23935129        3       1.00000000       0.03965488      -0.14599597       0.05197155
Ni       7.64717495       7.33426535       2.23989003        3       1.00000000      -0.16233528      -0.11480049       0.02590373
Pt      10.22127652       7.26179211       2.22533594        3       0.00000000      -0.07354527      -0.09378897      -0.20328730
Ni      12.85023521       7.29019514       2.19743769        3       1.00000000       0.09690906      -0.20038876      -0.01441408
Ni       0.01883045       1.50972824       4.32567753        2       1.00000000      -0.04401744       0.09332645      -0.06196515
Pt       2.51879946       1.52428851       4.27344804        2       0.00000000       0.00468325       0.03589738       0.15435081
Ni       5.15397321       1.47927903       4.33255963        2       1.00000000      -0.08567691      -0.00661248      -0.16035665
Ni       7.70136865       1.47845550       4.36299358        2       1.00000000      -0.00687587       0.01370079      -0.06099879
Ni       1.26688929       3.70113401       4.38818337        2       1.00000000      -0.06353662       0.04441845       0.04914961
Ni       3.84298327       3.73194536       4.32812042        2       1.00000000      -0.08390638       0.08071372      -0.19211625
Pt       6.41555585       3.67536715       4.34837850        2       0.00000000      -0.02363955      -0.02853080      -0.01924042
Ni       9.01437356       3.69453491       4.33794325        2       1.00000000       0.05025421       0.03112537      -0.25301734
Ni       2.57875638       5.80422930       4.38883397        2       1.00000000      -0.00709721      -0.12470294      -0.05083371
Ni       5.11461785       5.83002802       4.32531741        2       1.00000000       0.01707589      -0.13535211      -0.20346833
Ni       7.71408614       5.82201979       4.33634428        2       1.00000000       0.00113818      -0.09568748      -0.22753237
Ni      10.25619197       5.78537742       4.43172051        2       1.00000000       0.00793138      -0.05813154      -0.02614890
Pt       3.91063589       8.00181660       4.32453044        2       0.00000000       0.02519452      -0.14287448       0.25586986
Ni       6.40323404       8.04481165       4.30409186        2       1.00000000      -0.04606408      -0.07623902      -0.14973562
Pt       8.90109851       8.00697752       4.33244900        2       0.00000000      -0.03035336       0.01149965       0.11091438
Pt      11.57457597       8.02386851       4.31749234        2       0.00000000      -0.00152814      -0.06040572       0.05392818
Pt       0.03026813      -0.00138942       6.53809731        1       0.00000000       0.00548126       0.05782085       0.12243931
Pt       2.57741809      -0.01573031       6.57874219        1       0.00000000      -0.02806490       0.05601189       0.24526039
Pt       5.15101194      -0.04815760       6.47447854        1       0.00000000       0.04966726      -0.01760979      -0.39425382
Pt       7.70931877      -0.06774973       6.59676439        1       0.00000000      -0.06622326      -0.06922850       0.16653690
Ni       1.29336831       2.27097694       6.49319518        1       1.00000000      -0.01653015       0.24956676      -0.14897784
Pt       3.86667061       2.31062654       6.44651755        1       0.00000000      -0.06548903       0.14934362      -0.23669280
Ni       6.43436027       2.22636244       6.44106569        1       1.00000000       0.01019380       0.06037375      -0.22799497
Pt       9.00244676       2.28818541       6.41467139        1       0.00000000       0.00409475       0.13522582      -0.36635188
Ni       2.54463873       4.44611846       6.47847344        1       1.00000000      -0.12647858       0.07345413      -0.20941333
Ni       5.12242471       4.40519907       6.50189881        1       1.00000000      -0.08495538       0.07223592      -0.14736432
Ni       7.72518064       4.39840724       6.43610884        1       1.00000000       0.08628919       0.06085118      -0.29165595
Ni      10.30144765       4.42878043       6.50105555        1       1.00000000       0.06051527       0.09116998      -0.19508129
Ni       3.81976882       6.52036599       6.49931680        1       1.00000000      -0.07940686      -0.20043258      -0.10455416
Pt       6.41147061       6.49516920       6.41496888        1       0.00000000      -0.00219505       0.00261119      -0.28364000
Ni       9.01468454       6.50778327       6.51129480        1       1.00000000       0.02969738      -0.18004892      -0.20385729
Ni      11.54707160       6.50707765       6.52987493        1       1.00000000      -0.02842465      -0.06944415      -0.18128322
