64
Lattice="10.267067032816838 -0.013719302686535659 0.0419450600753843 5.12165225175967 8.821236496520765 -0.01833756090583186 0.03424799813835945 -0.03706190916696771 8.764866039601362" Properties=species:S:1:pos:R:3:tags:I:1:initial_magmoms:R:1:forces:R:3 unique_id=fa5055d1d7a34134a9ec22a6076dcd66 stress="0.00021154761496098434 5.200501525479408e-06 -2.2240659888060472e-05 5.200501525479408e-06 0.00021559685372363885 3.747326854053358e-06 -2.2240659888060472e-05 3.747326854053358e-06 0.000213798755117324" energy=-395.0697489139844 pbc="T T T"
Ni       0.03937178      -0.04771607       0.18392304        4       1.00000000       0.07943948      -0.11095859       0.29994995
Ni       2.51667909      -0.03105283       0.22246836        4       1.00000000      -0.07100222      -0.05601752       0.37097169
Pt       5.12665228      -0.05132548       0.16302756        4       0.00000000       0.00398063      -0.08851896       0.30878558
Ni       7.72978391      -0.07384512       0.21796508        4       1.00000000       0.06450526      -0.09433197       0.34466655
Ni       1.28922917       2.20597922       0.10562440        4       1.00000000       0.03006335       0.00044016       0.24919105
Pt       3.77034653       2.25627179       0.19371317        4       0.00000000      -0.01958721       0.07667162       0.19340644
Pt       6.41983952       2.21602667       0.12738795        4       0.00000000       0.05030647       0.09482225       0.00767721
Pt       9.07209172       2.19793540       0.14946945        4       0.00000000       0.13278730      -0.03239193       0.13810475
Ni       2.55870516       4.44489771       0.05915863        4       1.00000000       0.08253434       0.10331555       0.01399084
Ni       5.10000396       4.46999634       0.10953413        4       1.00000000      -0.03339204       0.17934464       0.22646332
Pt       7.69693326       4.50389539       0.11777411        4       0.00000000      -0.00547379       0.12731577      -0.07029175
Ni      10.31052197       4.42313136       0.10067488        4       1.00000000       0.11504551       0.08649361       0.09971893
Ni       3.84813493       6.60109912       0.09681635        4       1.00000000       0.07508932      -0.03893993       0.17926927
Ni       6.37935720       6.64265605       0.18606211        4       1.00000000      -0.08850289       0.05465998       0.18618451
Ni       8.96767690       6.60228962       0.16969023        4       1.00000000      -0.07089825       0.04857914       0.20142003
Ni      11.58710538       6.56504661       0.09180859        4       1.00000000       0.15706285      -0.05527352       0.03620508
Ni       1.30163787       0.71590584       2.18795257        3       1.00000000      -0.04665029      -0.02622140       0.05530962
Ni       3.83157288       0.74110615       2.23377593        3       1.00000000       0.04492537      -0.01991163      -0.00708846
Ni       6.42554720       0.75787897       2.26730861        3       1.00000000      -0.06202681       0.09506155       0.07037092
Pt       9.01049912       0.70278328       2.27605625        3       0.00000000       0.01544938       0.12955117      -0.06611014
Ni       2.55804609       2.93790625       2.23464995        3       1.00000000       0.03977526       0.05082767      -0.00009631
Ni       5.12503470       2.95698736       2.25752099        3       1.00000000      -0.10895564       0.06825616       0.01177026
Ni       7.70767691       2.95229327       2.27099205        3       1.00000000       0.10724995       0.03455225      -0.02455328
Ni      10.29308769       2.92313642       2.28265756        3       1.00000000       0.01948357      -0.05876751       0.12970502
Ni       3.89074191       5.13330633       2.19937535        3       1.00000000       0.10270146      -0.01522079       0.05565443
Ni       6.39409428       5.15851018       2.22452906        3       1.00000000      -0.06142844       0.04879521       0.02817407
Ni       8.95659924       5.09746206       2.26168090        3       1.00000000      -0.07768839      -0.16967713       0.15737130
Pt      11.59858299       5.05985817       2.24010043        3       0.00000000       0.12980804      -0.08706558       0.05720192
Ni       5.16382400       7.29449543       2.16987332        3       1.00000000       0.00150886      -0.12974324       0.06249771
Ni       7.63269535       7.31914448       2.18085185        3       1.00000000      -0.13417479      -0.12179093       0.06683680
Pt      10.24239359       7.26393274       2.20828876        3       0.00000000      -0.04758229      -0.05262467      -0.17483324
Ni      12.87154252       7.29012518       2.17539205        3       1.00000000       0.13946920      -0.21723087      -0.04552353
Ni       0.02101272       1.49851061       4.31560639        2       1.00000000      -0.05093868       0.08257085      -0.08215097
Pt       2.51829887       1.52408070       4.26022811        2       0.00000000      -0.00325646       0.03741933       0.14247181
Ni       5.16066096       1.47965563       4.31684117        2       1.00000000      -0.09576955       0.02643384      -0.20380429
Ni       7.71140457       1.47394269       4.35314245        2       1.00000000       0.00515541       0.01713982      -0.09562657
Ni       1.27276987       3.69052397       4.37182329        2       1.00000000      -0.03954644       0.02936020       0.00639721
Ni       3.85113419       3.72584707       4.31347331        2       1.00000000      -0.07296976       0.11102955      -0.22466130
Pt       6.42224052       3.66897021       4.33092995        2       0.00000000      -0.03216367      -0.00803938      -0.09321887
Ni       9.02394815       3.68657970       4.32148463        2       1.00000000       0.02672277       0.05986564      -0.25941343
Ni       2.59041186       5.79607745       4.36904974        2       1.00000000       0.02702261      -0.11549431      -0.07947099
Ni       5.12902886       5.82576876       4.31675016        2       1.00000000       0.02729204      -0.12695322      -0.20365635
Ni       7.70067295       5.82345711       4.31433199        2       1.00000000      -0.03722863      -0.03527237      -0.20093455
Ni      10.28884280       5.77420733       4.37888331        2       1.00000000       0.01466625      -0.07818382      -0.04832535
Pt       3.92447038       7.99125574       4.29460068        2       0.00000000       0.06736509      -0.16966782       0.18305462
Ni       6.41371014       8.03101634       4.28593177        2       1.00000000      -0.05187816      -0.09861666      -0.16476205
Pt       8.91033281       8.02593850       4.28931297        2       0.00000000      -0.06352753      -0.02973117       0.06793927
Pt      11.59341176       8.02290364       4.29577201        2       0.00000000       0.01965498      -0.04309197       0.06643688
Pt       0.02341312      -0.00642100       6.53545902        1       0.00000000       0.02888228       0.07075633       0.13632461
Pt       2.57055149       0.00012723       6.57064378        1       0.00000000      -0.05886165       0.05114939       0.24591533
Pt       5.16590511      -0.00368984       6.46149745        1       0.00000000       0.05373224       0.06938305      -0.43725914
Pt       7.72413145      -0.07187029       6.58737123        1       0.00000000      -0.09294345      -0.04737894       0.14046992
Ni       1.29674282       2.25834738       6.48110045        1       1.00000000       0.01367053       0.19322044      -0.14547387
Pt       3.87002067       2.31469471       6.43286414        1       0.00000000      -0.10149398       0.17655741      -0.24902935
Ni       6.44396163       2.22142910       6.42690270        1       1.00000000      -0.00833204       0.06256594      -0.25071689
Pt       9.01272483       2.27762727       6.40153395        1       0.00000000      -0.01366217       0.12796291      -0.38430590
Ni       2.55404625       4.43669774       6.46033818        1       1.00000000      -0.08021473       0.09099083      -0.22439603
Ni       5.12710328       4.39305889       6.48768728        1       1.00000000      -0.10437503       0.08868914      -0.15077709
Ni       7.69756151       4.35464984       6.42483919        1       1.00000000      -0.09795734      -0.02420971      -0.27469520
Ni      10.35345008       4.37118481       6.48654179        1       1.00000000       0.22605638       0.00193958      -0.22671980
Ni       3.82509381       6.51090691       6.48208727        1       1.00000000      -0.08340310      -0.17638138      -0.09405760
Pt       6.37680155       6.48976508       6.48712504        1       0.00000000      -0.04568241       0.02826936       0.06576889
Pt       9.04898975       6.45426304       6.52041109        1       0.00000000       0.03038669      -0.12887716       0.07527466
Ni      11.59896588       6.50624858       6.50934654        1       1.00000000       0.02977499      -0.06740626      -0.19899816
