64
Lattice="10.26411250092445 0.015525672610238236 -0.02403176030598893 5.145501877353532 8.877433049233101 -0.03039373519315612 -0.019621850123514556 -0.01732680789674893 8.783778559980455" Properties=species:S:1:pos:R:3:tags:I:1:initial_magmoms:R:1:forces:R:3 unique_id=3107bd42078643d0b607968fb9747d46 stress="0.00024106629621752085 -5.133414000500775e-07 -5.860522549786129e-06 -5.133414000500775e-07 0.0002459726137402779 1.1210119054701372e-05 -5.860522549786129e-06 1.1210119054701372e-05 0.00023818459828025412" energy=-396.15239131234307 pbc="T T T"
Ni       0.00782084      -0.00755549       0.18073238        4       1.00000000       0.00877256       0.01978877       0.37383735
Ni       2.53031852       0.01382358       0.19674580        4       1.00000000      -0.07843101       0.07291635       0.44985481
Pt       5.12015498      -0.03184558       0.12793056        4       0.00000000      -0.05378668      -0.06556898       0.34460545
Ni       7.71974234      -0.04723334       0.16809268        4       1.00000000       0.01920697      -0.08246975       0.37854770
Ni       1.28893130       2.22699081       0.10226526        4       1.00000000       0.01908629       0.04251522       0.27188340
Pt       3.76307325       2.27720033       0.17110306        4       0.00000000      -0.06590863       0.12485880       0.12745926
Pt       6.41681887       2.23807598       0.09842598        4       0.00000000       0.03598504       0.08652524      -0.00390558
Pt       9.07536501       2.23055782       0.09788570        4       0.00000000       0.09535538      -0.03262702       0.13890233
Ni       2.56203475       4.47475461       0.05589945        4       1.00000000       0.05492065       0.09599738       0.00221575
Ni       5.09421628       4.47710286       0.17000172        4       1.00000000      -0.06789123       0.09350084       0.35568942
Pt       7.74455728       4.50234183       0.07611964        4       0.00000000       0.02742536       0.07314538      -0.07208280
Ni      10.31803411       4.47547830       0.04059203        4       1.00000000       0.12658865       0.06295448       0.14760547
Ni       3.81706098       6.64938298       0.09116737        4       1.00000000      -0.09316628      -0.04938698       0.22490422
Pt       6.37909276       6.71395003       0.15398811        4       0.00000000      -0.10729373       0.01402546       0.03629026
Ni       9.00532399       6.65243073       0.04511988        4       1.00000000      -0.01362434      -0.00002546       0.10242025
Ni      11.58819109       6.63440970       0.03306184        4       1.00000000       0.07175521      -0.04094533       0.08801360
Ni       1.30982510       0.74732846       2.22087304        3       1.00000000       0.02549832       0.04586459       0.14555310
Ni       3.80505192       0.77986506       2.23456180        3       1.00000000      -0.02101233       0.11374593       0.04307373
Ni       6.41032908       0.78815764       2.23003296        3       1.00000000      -0.07282421       0.12367919       0.05597610
Pt       8.99872805       0.74202008       2.22899679        3       0.00000000       0.05058792       0.16636522      -0.00712470
Ni       2.55653798       2.93066322       2.26915117        3       1.00000000       0.02820050      -0.12444738       0.19221554
Ni       5.11003291       2.97975469       2.23473341        3       1.00000000      -0.15862810       0.01544026       0.01722134
Ni       7.70257347       2.98702850       2.23201642        3       1.00000000       0.12238065       0.01246746      -0.05758964
Ni      10.29368647       2.96481023       2.23099783        3       1.00000000       0.07709227      -0.06484899       0.14918057
Ni       3.88776958       5.17089783       2.19969976        3       1.00000000       0.07826653      -0.03279707       0.11822158
Ni       6.39911679       5.18517959       2.21831463        3       1.00000000      -0.02019198       0.08731237      -0.02670301
Ni       8.95415498       5.15450753       2.20586489        3       1.00000000      -0.07117984      -0.17039781       0.12440527
Pt      11.61268919       5.11453493       2.14672249        3       0.00000000       0.16184417      -0.15610808       0.10412086
Ni       5.14254693       7.36360564       2.21184807        3       1.00000000       0.03640757      -0.13060844       0.05313042
Ni       7.66011543       7.40355106       2.19433987        3       1.00000000      -0.20583945      -0.06776323      -0.01222027
Pt      10.23484885       7.34584329       2.15914943        3       0.00000000      -0.06521672      -0.08079143      -0.30771266
Ni      12.87080749       7.37070421       2.12049406        3       1.00000000       0.08169745      -0.18592078      -0.01035972
Ni       0.04878322       1.51315010       4.33117530        2       1.00000000       0.13466268       0.04399616      -0.08116031
Ni       2.51224615       1.51997227       4.29121185        2       1.00000000      -0.06077933       0.04619810      -0.15592078
Ni       5.11027419       1.51759338       4.29675825        2       1.00000000      -0.12801122       0.04902389      -0.19957023
Ni       7.69267184       1.50847130       4.31376176        2       1.00000000       0.03576752      -0.01744453      -0.08583139
Ni       1.30402096       3.63922968       4.37390278        2       1.00000000       0.05663658      -0.08313354      -0.04795094
Ni       3.80576708       3.71429870       4.28354770        2       1.00000000      -0.04524741       0.02786811      -0.21863813
Pt       6.42281063       3.69798380       4.27438064        2       0.00000000      -0.07328672       0.01059131       0.05475909
Ni       8.98624820       3.68877602       4.27909539        2       1.00000000       0.02564751      -0.11703514      -0.33203366
Ni       2.60048058       5.84598344       4.37114312        2       1.00000000       0.05916784      -0.15534955      -0.07464090
Ni       5.12173630       5.88638510       4.27951243        2       1.00000000       0.05547925      -0.18174373      -0.19377924
Ni       7.68396478       5.89551756       4.28822194        2       1.00000000      -0.04339439      -0.01822546      -0.28275254
Pt      10.25673034       5.81757604       4.39346940        2       0.00000000       0.05305953      -0.06898673       0.01509545
Pt       3.92156253       8.05998266       4.30214684        2       0.00000000       0.02930029      -0.13049148       0.24468233
Ni       6.40980869       8.13977477       4.26242505        2       1.00000000      -0.03801988       0.03377942      -0.17586721
Pt       8.88133132       8.16023538       4.25404936        2       0.00000000      -0.07619366       0.08675256       0.13855377
Pt      11.58929165       8.14779866       4.24054996        2       0.00000000       0.06811672      -0.00347981       0.03690524
Pt      -0.00425042       0.01447638       6.54330618        1       0.00000000       0.03077086       0.09116500       0.13437983
Pt       2.54035023       0.00966922       6.54521242        1       0.00000000       0.00733626       0.03915055       0.19375613
Pt       5.12516029      -0.03641452       6.44448489        1       0.00000000       0.05674338      -0.03503716      -0.40638982
Pt       7.68601102      -0.03287580       6.55682242        1       0.00000000      -0.07039810      -0.02324209       0.15578268
Ni       1.26326832       2.27876815       6.46953472        1       1.00000000      -0.04490868       0.19328754      -0.21129394
Pt       3.78336768       2.26750110       6.38701699        1       0.00000000      -0.09771045       0.10458804      -0.28640356
Ni       6.41636742       2.23329150       6.40535788        1       1.00000000      -0.02627009       0.03016173      -0.27448215
Pt       8.98464459       2.32264805       6.36441479        1       0.00000000      -0.02294027       0.13049677      -0.36654051
Ni       2.50143342       4.46183982       6.46956582        1       1.00000000      -0.13568317       0.06832525      -0.25456037
Pt       5.08776805       4.44839316       6.50045418        1       0.00000000      -0.04846074       0.03896393       0.11829328
Ni       7.72867024       4.45078620       6.39563182        1       1.00000000       0.07848910       0.10535402      -0.33163271
Ni      10.29067094       4.45300457       6.48460284        1       1.00000000       0.11359576      -0.00371918      -0.03507769
Ni       3.79886828       6.60444745       6.48631353        1       1.00000000      -0.08292267      -0.07772131      -0.10290625
Pt       6.44785852       6.60926238       6.37906327        1       0.00000000       0.03638944       0.03164008      -0.30535634
Ni       9.00492860       6.58941777       6.48178954        1       1.00000000       0.05772909      -0.11633760      -0.11739855
Ni      11.55943194       6.58963679       6.48704749        1       1.00000000       0.06925803      -0.06579137      -0.09965001
