64
Lattice="10.750308099896223 0.00812561572538094 -0.024160300670244814 5.382191039587678 9.321342471090981 -0.025098457882849576 0.0 0.0 21.956623832066423" Properties=species:S:1:pos:R:3:tags:I:1:initial_magmoms:R:1:forces:R:3 unique_id=d26bbbf3fb84409fa3ba495e4d398811 stress="0.003187590298531103 3.6259516443580446e-05 0.00010500583127962668 3.6259516443580446e-05 0.0031195436318336087 4.001093500630448e-05 0.00010500583127962668 4.001093500630448e-05 -0.0016881585369219864" energy=-403.5275160899599 pbc="T T T"
Pt      -0.00738374      -0.00231678       0.10300760        1       0.00000000      -0.05822181       0.04399339      -0.29786517
Pt       2.69018899       0.00205561       0.09847336        1       0.00000000       0.02008451       0.01488000      -0.38834104
Pt       5.38823719       0.01148539       0.10357888        1       0.00000000       0.14463539       0.04175613      -0.20253010
Pt       8.05084312       0.00915987       0.09239240        1       0.00000000      -0.12079280       0.00973447      -0.20045813
Pt       1.34512193       2.33450819       0.09270156        1       0.00000000      -0.03180497       0.00167282      -0.37808409
Pt       4.03714824       2.33515852       0.08382656        1       0.00000000       0.01506341       0.02141751      -0.29917634
Pt       6.72808008       2.33013023       0.05241892        1       0.00000000       0.09029440      -0.05652890       0.17967419
Pt       9.39418168       2.33988835       0.09031112        1       0.00000000      -0.09053674       0.06172451      -0.30676557
Pt       2.69231845       4.66268926       0.00565567        0       0.00000000       0.00374237      -0.01294620      -0.09047464
Pt       5.37661665       4.65677438       0.07434622        1       0.00000000       0.00438630      -0.02284843      -0.16163814
Pt       8.06103825       4.64807221       0.09000823        1       0.00000000      -0.01509580      -0.13161292      -0.19712782
Pt      10.75613600       4.66608923       0.06620296        1       0.00000000      -0.01734229       0.01070347      -0.42182563
Pt       4.03326760       6.98775333       0.00000000        0       0.00000000      -0.02157398       0.01567208      -0.00968395
Pt       6.72036382       6.99078080       0.07375477        1       0.00000000       0.00616265      -0.06010991      -0.33323351
Pt       9.41280837       6.99353847       0.07454169        1       0.00000000       0.05079839      -0.02766036      -0.32039391
Pt      12.10458132       6.99746703       0.05449125        1       0.00000000      -0.02161336       0.02938235      -0.29321744
Pt       1.33205329       0.77835217       2.37822838        2       0.00000000      -0.07482007       0.02660882       0.51500968
Pt       4.07133034       0.78435493       2.37410674        2       0.00000000       0.14143860       0.10917664       0.47680859
Ni       6.72290122       0.79220026       2.36747313        2       1.00000000       0.04672076       0.07165021       0.50291679
Pt       9.33311730       0.81761720       2.36730481        2       0.00000000      -0.24844041       0.10524163       0.47301268
Pt       2.69649942       3.10840780       2.37558958        2       0.00000000       0.12538446       0.06643818       0.51049171
Pt       5.45477217       3.07189404       2.39416663        2       0.00000000       0.25787396      -0.12185502       0.54187953
Ni       8.04400963       3.09554668       2.36033030        2       1.00000000      -0.07707168      -0.08429018       0.49878103
Pt      10.70584281       3.10685876       2.35824489        2       0.00000000      -0.08224593      -0.01212162       0.53645291
Pt       4.03210406       5.43547899       2.37423876        2       0.00000000      -0.01078753      -0.00029548       0.45917047
Pt       6.73361773       5.38563804       2.38213727        2       0.00000000      -0.03477368      -0.14533323       0.53289950
Pt       9.38984942       5.41200037       2.35989499        2       0.00000000       0.01987644      -0.01048219       0.49969187
Pt      12.09275644       5.44527104       2.35024812        2       0.00000000       0.05658828       0.02526700       0.47632021
Pt       5.36122865       7.76215364       2.36701310        2       0.00000000      -0.15424753      -0.04061508       0.50313359
Pt       8.07054762       7.76050922       2.35885857        2       0.00000000       0.02784461      -0.05649933       0.52866392
Pt      10.78191229       7.80619707       2.37177737        2       0.00000000       0.11447264       0.07414576       0.57180662
Pt      13.41539800       7.81442489       2.37029742        2       0.00000000      -0.02011201       0.07367723       0.56989411
Pt      -0.02981006       1.54748590       4.68097632        4       0.00000000      -0.14690080      -0.00074105      -0.50651551
Pt       2.69722945       1.55052136       4.67307161        4       0.00000000       0.14233724      -0.01141380      -0.52040457
Pt       5.42514960       1.55882253       4.66771732        4       0.00000000       0.14118103       0.10074018      -0.32425786
Pt       8.00159337       1.56545663       4.63549427        3       0.00000000      -0.13066382       0.08266896      -0.48644639
Pt       1.34857677       3.89381896       4.69845447        4       0.00000000       0.08722252       0.12283956      -0.37072217
Pt       4.05250228       3.88237022       4.68870354        4       0.00000000       0.00864724       0.00076192      -0.44441093
Ni       6.71486637       3.86781152       4.67593681        4       1.00000000      -0.00320632      -0.12093013      -0.41894279
Pt       9.34861887       3.86985570       4.63057767        3       0.00000000      -0.13132607      -0.07155326      -0.56201250
Pt       2.68666158       6.22525192       4.72009040        4       0.00000000       0.15636846      -0.08779790      -0.16775890
Pt       5.36906631       6.18637373       4.68663480        4       0.00000000      -0.06857037       0.03651931      -0.40337481
Pt       8.03994056       6.17888144       4.65600001        4       0.00000000      -0.03995349      -0.05286311      -0.45106828
Pt      10.76306966       6.23850285       4.64614658        3       0.00000000       0.02200089       0.00722300      -0.48951921
Pt       3.98347833       8.52990366       4.68376503        4       0.00000000      -0.13042519      -0.03388471      -0.37010857
Pt       6.71348305       8.53172670       4.65583665        4       0.00000000       0.00977242      -0.03424576      -0.51714001
Pt       9.44532783       8.54778232       4.64723268        3       0.00000000       0.11668479       0.05653848      -0.45125671
Ni      12.09395513       8.55235107       4.65375539        4       1.00000000       0.03290486       0.06865504      -0.47687337
Pt      -0.03705010      -0.03380852       6.95662383        6       0.00000000      -0.09112802       0.04143991       0.36967081
Pt       2.67512823      -0.00175683       6.95384403        6       0.00000000       0.01770579       0.05330645       0.43673223
Pt       5.39371193       0.01928174       6.92621028        5       0.00000000       0.24596800      -0.02362501       0.16595488
Pt       8.03579490      -0.00627570       6.91851272        5       0.00000000      -0.16381904      -0.06416289       0.13743745
Pt       1.34819643       2.34772451       6.95215662        6       0.00000000       0.00974160      -0.02645643       0.40800736
Pt       4.04011681       2.35446689       6.94189572        5       0.00000000       0.05576369       0.04150840       0.28687012
Ni       6.70642083       2.32616609       6.94328493        5       1.00000000      -0.02174840       0.05781164      -0.42885139
Pt       9.35876301       2.32512993       6.93201486        5       0.00000000      -0.03090286      -0.05710752       0.22460486
Ni       2.68661231       4.66279443       6.94718656        5       1.00000000       0.05870728       0.00722477      -0.44676305
Pt       5.33633465       4.65342403       6.92233624        5       0.00000000       0.06347791      -0.04406904       0.23056595
Pt       8.01926272       4.62010036       6.91480314        5       0.00000000      -0.23533592      -0.11901967       0.19650525
Pt      10.76692531       4.66204663       6.92315885        5       0.00000000      -0.05132528       0.02679110       0.28196096
Ni       4.01413963       6.97138761       6.93935340        5       1.00000000       0.00319826      -0.03866807      -0.43045938
Pt       6.67385165       6.97412598       6.93355466        5       0.00000000      -0.06175820      -0.09271089       0.42853102
Pt       9.40209971       6.98241868       6.92401546        5       0.00000000       0.00672740      -0.06483141       0.37229886
Pt      12.13979478       6.97375179       6.90409175        5       0.00000000       0.08276785       0.22010859       0.25195476
