64
Lattice="10.24553854022832 -0.0043162001347947735 0.017554794459760426 5.119031331149608 8.814141818050919 -0.0582150142030447 0.014333429655283399 -0.06316105121634753 8.743198301384568" Properties=species:S:1:pos:R:3:tags:I:1:initial_magmoms:R:1:forces:R:3 unique_id=641cba44ca7a4b519e4311af09161c9c stress="0.00012524809018053806 -3.1875304657913035e-07 1.0184256699772576e-06 -3.1875304657913035e-07 0.0001381645947310453 2.160591207817605e-05 1.0184256699772576e-06 2.160591207817605e-05 0.00013909415299345057" energy=-394.2323817309831 pbc="T T T"
Ni       0.00879817       0.01160836       0.18658905        4       1.00000000       0.05813933       0.05523692       0.31177298
Ni       2.56610063      -0.00842711       0.20881360        4       1.00000000       0.06799860      -0.01033768       0.30740127
Ni       5.12891606      -0.04096683       0.09338339        4       1.00000000       0.02011574      -0.06819527       0.09540228
Ni       7.69137297      -0.03546544       0.07533436        4       1.00000000       0.03732878      -0.05789903       0.03273597
Ni       1.24846889       2.20527193       0.18268004        4       1.00000000      -0.08431732       0.03747883       0.28192815
Pt       3.79542603       2.20259854       0.17530300        4       0.00000000      -0.05417628      -0.03330538       0.21354839
Pt       6.45651565       2.19335957       0.18669818        4       0.00000000       0.07504842      -0.00309680       0.40298971
Ni       9.00409473       2.22556980       0.15045409        4       1.00000000       0.12412987       0.09286607       0.14813635
Ni       2.55483250       4.42494707       0.04370412        4       1.00000000      -0.04683855       0.00283023       0.03070669
Ni       5.09366428       4.41654208       0.05446651        4       1.00000000      -0.06893823      -0.02963610       0.11877828
Ni       7.74071971       4.39734138       0.05979849        4       1.00000000       0.20338844      -0.02658415       0.06283916
Ni      10.23543510       4.38690918       0.06514735        4       1.00000000      -0.01660190      -0.07949926       0.03445054
Ni       3.82945860       6.58833326       0.01999925        4       1.00000000       0.03102172      -0.11821350       0.04123481
Pt       6.40234633       6.63198140       0.00646934        4       0.00000000       0.00755453      -0.02933986      -0.22942193
Ni       8.97819773       6.58610873       0.11356992        4       1.00000000      -0.00028344      -0.12202952       0.17782590
Ni      11.52259460       6.59281292       0.01067071        4       1.00000000      -0.08357942      -0.12196449      -0.09690216
Ni       1.30222268       0.73671948       2.15036354        3       1.00000000       0.00532647       0.06462602       0.00905716
Ni       3.84782546       0.71769044       2.20922086        3       1.00000000       0.08706371       0.00127926       0.00426598
Ni       6.38110641       0.73906168       2.25140912        3       1.00000000      -0.01010419       0.04684400       0.14501656
Pt       8.99122880       0.79028824       2.19410619        3       0.00000000      -0.06611937      -0.01030620       0.05904311
Ni       2.55129350       2.92633747       2.20031660        3       1.00000000      -0.01044163       0.07562591      -0.04114474
Ni       5.09424513       2.90600403       2.23901281        3       1.00000000      -0.11848538      -0.08880189       0.08668762
Ni       7.73806114       2.93931323       2.20972580        3       1.00000000       0.17781635       0.07346495       0.04984513
Ni      10.24445620       2.92403210       2.20151528        3       1.00000000       0.01822945       0.02215118       0.15880040
Ni       3.84518369       5.07814346       2.14082399        3       1.00000000      -0.03190367      -0.12863845      -0.06395430
Pt       6.43107551       5.10584355       2.14488612        3       0.00000000       0.01592818       0.07895383      -0.16642608
Ni       8.96535630       5.08655068       2.17654286        3       1.00000000       0.03714386      -0.06288424       0.05716869
Pt      11.51102564       5.03989732       2.18768254        3       0.00000000      -0.01997735       0.00894661      -0.03812381
Ni       5.13134733       7.33639469       2.12701516        3       1.00000000      -0.04414611      -0.05515205      -0.05899826
Ni       7.68918441       7.35013475       2.14340789        3       1.00000000       0.01869460      -0.03336252      -0.01786932
Pt      10.18309665       7.35738972       2.17747992        3       0.00000000      -0.02825929      -0.04631768       0.05243431
Pt      12.81817015       7.30668841       2.10822800        3       0.00000000       0.01500644      -0.03745061      -0.06745525
Ni      -0.00335680       1.49687426       4.30563164        2       1.00000000       0.03322200       0.12227577      -0.00434175
Pt       2.58832586       1.49023268       4.20999041        2       0.00000000      -0.00611385       0.02753827       0.15405387
Ni       5.15054642       1.38047820       4.28489350        2       1.00000000       0.00382335      -0.07808795      -0.08388024
Ni       7.68200824       1.42768671       4.31054789        2       1.00000000      -0.05085767       0.03935112      -0.04571536
Ni       1.26272225       3.68811128       4.32270975        2       1.00000000      -0.05741924       0.01710937      -0.00309232
Ni       3.81298402       3.66855423       4.29080480        2       1.00000000      -0.12076693       0.02247042      -0.17525670
Pt       6.44962014       3.59908138       4.29419726        2       0.00000000      -0.00513892      -0.13055674       0.16415005
Ni       9.01311576       3.66758028       4.30835995        2       1.00000000       0.13240864       0.08500599      -0.14415918
Ni       2.50372034       5.80985885       4.35192205        2       1.00000000      -0.18159972      -0.00174876      -0.09177333
Pt       5.05544411       5.80360239       4.34351246        2       0.00000000      -0.11907214      -0.02182496      -0.15965179
Ni       7.75494359       5.82157227       4.30545861        2       1.00000000       0.17411923      -0.03024331      -0.18159224
Ni      10.26619651       5.82274889       4.32525809        2       1.00000000       0.01502713      -0.01029178      -0.08841405
Pt       3.74819584       8.06616153       4.31629758        2       0.00000000      -0.03910456       0.01452286       0.12107285
Pt       6.44801202       8.02425204       4.20647734        2       0.00000000      -0.01528029       0.03302420       0.04588504
Ni       9.02121692       8.03287587       4.29647962        2       1.00000000      -0.03368160      -0.00895201       0.04229054
Ni      11.48130043       8.04334420       4.34490722        2       1.00000000      -0.09079732      -0.06452759      -0.04357414
Pt      -0.04012770      -0.11219326       6.56123453        1       0.00000000      -0.06232732      -0.07489565       0.17903263
Pt       2.61666678      -0.07689731       6.53974259        1       0.00000000       0.05039984       0.02591564       0.15628592
Ni       5.17883578      -0.08976414       6.46105357        1       1.00000000       0.01232406      -0.10763243      -0.19516107
Ni       7.63257860      -0.10323217       6.50241418        1       1.00000000      -0.11908364      -0.12860958      -0.09458217
Pt       1.28313849       2.26133712       6.48976624        1       0.00000000       0.03276997       0.09232722       0.17516054
Pt       3.87896126       2.24284329       6.40708174        1       0.00000000       0.01293385       0.23437373      -0.29392978
Pt       6.41396302       2.11017029       6.43180334        1       0.00000000      -0.01091628      -0.04241047      -0.22526161
Pt       8.95366425       2.22492158       6.46508290        1       0.00000000       0.02892773       0.13456250      -0.03160880
Ni       2.56190327       4.45263466       6.42449069        1       1.00000000      -0.03913116       0.19083134      -0.19375137
Ni       5.12323334       4.41756741       6.47257657        1       1.00000000       0.02119727       0.12279256      -0.06139421
Ni       7.67670140       4.39559552       6.45143735        1       1.00000000      -0.09460196       0.05038444      -0.16407439
Ni      10.28264272       4.40649543       6.43844284        1       1.00000000       0.18761452       0.09645219      -0.21400599
Ni       3.78959370       6.52095972       6.45302385        1       1.00000000      -0.17083234      -0.01931667      -0.07625461
Ni       6.40398907       6.50742284       6.36328435        1       1.00000000       0.09069115      -0.05389502      -0.40669944
Pt       9.03151036       6.49394842       6.43128014        1       0.00000000       0.05742703       0.03209691       0.07306236
Ni      11.56573357       6.56267837       6.42307276        1       1.00000000       0.04807684       0.03466925      -0.23459288
