102
Lattice="14.747579633050908 3.8169445179852467e-07 9.941081283805471e-08 3.8169445179852467e-07 14.747580514872006 -7.47423212986159e-08 0.0 0.0 36.25687252440943" Properties=species:S:1:pos:R:3:tags:I:1:initial_magmoms:R:1:forces:R:3 energy=-314.2091064453125 free_energy=-314.2091064453125 stress="0.007639405390793904 -1.2279907356062791e-08 -2.002151865301281e-06 -1.2279907356062791e-08 0.007639405390793904 -2.0011415178595643e-06 -2.002151865301281e-06 -2.0011415178595643e-06 0.0005693376672848391" pbc="T T T"
Au       1.47475800       1.47475809       0.00000006        0       0.00000000       0.00004721       0.00004751       0.08083667
Au       4.42427393       1.47475817       0.00000008        0       0.00000000      -0.00031794      -0.00003318       0.07898612
Au       7.37378985       1.47475824       0.00000010        0       0.00000000      -0.00014762       0.00002506       0.07854526
Au      10.32330578       1.47475832       0.00000012        0       0.00000000       0.00015239       0.00003005       0.07841204
Au      13.27282171       1.47475840       0.00000014        0       0.00000000       0.00016569      -0.00003399       0.07891478
Au       1.47475808       4.42427420       0.00000004        0       0.00000000      -0.00003158      -0.00031888       0.07898520
Au       4.42427401       4.42427427       0.00000006        0       0.00000000       0.00038750       0.00038566       0.07712528
Au       7.37378993       4.42427435       0.00000008        0       0.00000000       0.00009823       0.00005754       0.07833635
Au      10.32330586       4.42427442       0.00000010        0       0.00000000      -0.00009772       0.00013469       0.07820775
Au      13.27282178       4.42427450       0.00000012        0       0.00000000      -0.00031909       0.00028971       0.07720575
Au       1.47475815       7.37379030       0.00000003        0       0.00000000       0.00002647      -0.00014726       0.07854277
Au       4.42427408       7.37379037       0.00000005        0       0.00000000       0.00005888       0.00009834       0.07833471
Au       7.37379001       7.37379045       0.00000007        0       0.00000000       0.00004061       0.00004207       0.07900535
Au      10.32330593       7.37379053       0.00000009        0       0.00000000      -0.00002785       0.00011712       0.07884841
Au      13.27282186       7.37379060       0.00000011        0       0.00000000      -0.00014021       0.00008428       0.07830354
Au       1.47475823      10.32330640       0.00000001        0       0.00000000       0.00002972       0.00015125       0.07840999
Au       4.42427416      10.32330648       0.00000003        0       0.00000000       0.00013557      -0.00009823       0.07820693
Au       7.37379008      10.32330655       0.00000005        0       0.00000000       0.00011773      -0.00002884       0.07884662
Au      10.32330601      10.32330663       0.00000007        0       0.00000000      -0.00011667      -0.00011684       0.07867184
Au      13.27282194      10.32330670       0.00000009        0       0.00000000      -0.00021592      -0.00008229       0.07817852
Au       1.47475831      13.27282250       0.00000000        0       0.00000000      -0.00003259       0.00016715       0.07891337
Au       4.42427423      13.27282257       0.00000002        0       0.00000000       0.00029467      -0.00031084       0.07720564
Au       7.37379016      13.27282265       0.00000004        0       0.00000000       0.00008494      -0.00013783       0.07830426
Au      10.32330609      13.27282272       0.00000006        0       0.00000000      -0.00008122      -0.00021443       0.07817956
Au      13.27282201      13.27282280       0.00000008        0       0.00000000      -0.00022262      -0.00021989       0.07729422
Au       0.00000001      -0.00000001       2.08562419        1       0.00000000       0.00343746       0.00343691      -0.06759605
Au       2.94951594       0.00000007       2.08562421        1       0.00000000      -0.00326227       0.00417961      -0.06732872
Au       5.89903187       0.00000014       2.08562423        1       0.00000000      -0.00223761       0.00323771      -0.06565857
Au       8.84854779       0.00000021       2.08562425        1       0.00000000      -0.00047449      -0.00017311      -0.07225349
Au      11.79806373       0.00000029       2.08562427        1       0.00000000       0.00294020       0.00352678      -0.06559531
Au       0.00000009       2.94951609       2.08562417        1       0.00000000       0.00419248      -0.00325257      -0.06732748
Au       2.94951602       2.94951617       2.08562419        1       0.00000000      -0.00398580      -0.00398609      -0.06725237
Au       5.89903194       2.94951624       2.08562421        1       0.00000000      -0.00199875      -0.00309979      -0.06595860
Au       8.84854787       2.94951632       2.08562423        1       0.00000000      -0.00046658       0.00027540      -0.07216460
Au      11.79806380       2.94951640       2.08562425        1       0.00000000       0.00267566      -0.00337047      -0.06589577
Au       0.00000017       5.89903220       2.08562416        1       0.00000000       0.00323577      -0.00223823      -0.06565777
Au       2.94951609       5.89903227       2.08562418        1       0.00000000      -0.00309716      -0.00199929      -0.06595951
Au       5.89903202       5.89903235       2.08562420        1       0.00000000      -0.00146230      -0.00146053      -0.06802508
Au       8.84854795       5.89903242       2.08562422        1       0.00000000      -0.00043287       0.00235789      -0.07061574
Au      11.79806387       5.89903250       2.08562424        1       0.00000000       0.00242313      -0.00203562      -0.06791527
Au       0.00000024       8.84854830       2.08562414        1       0.00000000      -0.00017478      -0.00047286      -0.07225404
Au       2.94951617       8.84854838       2.08562416        1       0.00000000       0.00027690      -0.00046596      -0.07216459
Au       5.89903210       8.84854846       2.08562418        1       0.00000000       0.00235713      -0.00043582      -0.07061353
Au       8.84854802       8.84854853       2.08562420        1       0.00000000      -0.00024736      -0.00024979      -0.06870115
Au      11.79806395       8.84854861       2.08562422        1       0.00000000      -0.00222002      -0.00045465      -0.07104514
Au       0.00000032      11.79806441       2.08562413        1       0.00000000       0.00352877       0.00294205      -0.06559269
Au       2.94951625      11.79806448       2.08562415        1       0.00000000      -0.00337026       0.00267868      -0.06589410
Au       5.89903217      11.79806455       2.08562417        1       0.00000000      -0.00203429       0.00242714      -0.06791458
Au       8.84854810      11.79806463       2.08562419        1       0.00000000      -0.00045366      -0.00221634      -0.07104409
Au      11.79806403      11.79806471       2.08562421        1       0.00000000       0.00310783       0.00311264      -0.06776904
Au       1.47399825       1.47399825       4.17131587        2       0.00000000      -0.00150172      -0.00149872       0.04866207
Au       4.42218707       1.47531387       4.16677690        2       0.00000000       0.00348689      -0.00123060       0.00055650
Au       7.37514754       1.47492683       4.16301742        2       0.00000000      -0.00051915       0.00036367      -0.01623908
Au      10.32172886       1.47493283       4.16256190        2       0.00000000       0.00049861       0.00039486      -0.01660847
Au      13.27536105       1.47529761       4.16734177        2       0.00000000      -0.00494711      -0.00135726       0.00359606
Au       1.47531393       4.42218729       4.16677663        2       0.00000000      -0.00122965       0.00348423       0.00055980
Au       4.42530147       4.42530195       4.16438698        2       0.00000000       0.01092391       0.01091540      -0.01551995
Au       7.37465027       4.42641915       4.16315880        2       0.00000000       0.00487640       0.00315358      -0.01257000
Au      10.32238621       4.42671950       4.16265454        2       0.00000000      -0.00609896       0.00338070      -0.01243564
Au      13.27197750       4.42510879       4.16470166        2       0.00000000      -0.01152294       0.01338220      -0.01735672
Au       1.47492787       7.37514737       4.16301691        2       0.00000000       0.00036106      -0.00051993      -0.01623555
Au       4.42641851       7.37465041       4.16315948        2       0.00000000       0.00314290       0.00488058      -0.01255907
Au       7.37461193       7.37461290       4.16512624        2       0.00000000       0.00220201       0.00220064      -0.01114982
Au      10.32238552       7.37472803       4.16502391        2       0.00000000      -0.00267193       0.00249473      -0.01115542
Au      13.27057412       7.37453095       4.16292033        2       0.00000000      -0.00308491       0.00575528      -0.01279408
Au       1.47493241      10.32172803       4.16256261        2       0.00000000       0.00039915       0.00050704      -0.01660827
Au       4.42671826      10.32238752       4.16265324        2       0.00000000       0.00339136      -0.00610586      -0.01243579
Au       7.37472716      10.32238542       4.16502469        2       0.00000000       0.00249432      -0.00266971      -0.01115809
Au      10.32227165      10.32227289       4.16491335        2       0.00000000      -0.00301748      -0.00302333      -0.01116291
Au      13.27026455      10.32254495       4.16238532        2       0.00000000      -0.00332368      -0.00709760      -0.01266265
Au       1.47529802      13.27536083       4.16734177        2       0.00000000      -0.00136179      -0.00495131       0.00359766
Au       4.42510825      13.27197838       4.16470162        2       0.00000000       0.01338572      -0.01152258      -0.01735512
Au       7.37452970      13.27057504       4.16292077        2       0.00000000       0.00575554      -0.00308414      -0.01279619
Au      10.32254382      13.27026481       4.16238655        2       0.00000000      -0.00709617      -0.00331923      -0.01266550
Au      13.27224043      13.27224071       4.16507832        2       0.00000000      -0.01427991      -0.01427905      -0.01947131
Au      -0.03960738      -0.03960761       6.22129094        3       0.00000000       0.02904273       0.02904177       0.00530803
Au       2.98608800      -0.03296501       6.22177470        3       0.00000000      -0.02591430       0.02138710       0.00319539
Au       5.92053001      -0.00382490       6.22777883        3       0.00000000       0.00382842       0.00100168      -0.00624977
Au       8.84840354      -0.00038617       6.22991533        3       0.00000000      -0.00115659      -0.00112229      -0.00389008
Au      11.77422102      -0.00431633       6.22748311        3       0.00000000      -0.00329772       0.00116550      -0.00614813
Au      -0.03296569       2.98608830       6.22177434        3       0.00000000       0.02138767      -0.02591426       0.00319187
Au       2.98009849       2.98009853       6.22261741        3       0.00000000      -0.01904297      -0.01903960       0.00046320
Au       5.91805311       2.95378558       6.22766535        3       0.00000000       0.00335373      -0.00111105      -0.00605838
Au       8.84841402       2.94993367       6.22985728        3       0.00000000      -0.00100375       0.00115417      -0.00415921
Au      11.77688043       2.95430419       6.22734017        3       0.00000000      -0.00272705      -0.00129644      -0.00606059
Au      -0.00382520       5.92052992       6.22777858        3       0.00000000       0.00100250       0.00382990      -0.00625089
Au       2.95378489       5.91805300       6.22766528        3       0.00000000      -0.00111119       0.00335180      -0.00605628
Au       5.90323540       5.90323603       6.22878253        3       0.00000000      -0.00013934      -0.00014093      -0.00487366
Au       8.84849941       5.89925427       6.22852140        3       0.00000000      -0.00019156       0.00004694      -0.00360729
Au      11.79335660       5.90376390       6.22877313        3       0.00000000       0.00068074      -0.00033653      -0.00500526
Au      -0.00038636       8.84840433       6.22991422        3       0.00000000      -0.00112336      -0.00115971      -0.00390033
Au       2.94993399       8.84841477       6.22985839        3       0.00000000       0.00115463      -0.00100303      -0.00413536
Au       5.89925446       8.84849952       6.22852079        3       0.00000000       0.00004309      -0.00018862      -0.00362039
Au       8.84853828       8.84853872       6.22817432        3       0.00000000      -0.00010218      -0.00010349      -0.00255394
Au      11.79785351       8.84849636       6.22855589        3       0.00000000       0.00011088      -0.00020539      -0.00383401
Au      -0.00431669      11.77422139       6.22748354        3       0.00000000       0.00116845      -0.00329513      -0.00614992
Au       2.95430438      11.77688206       6.22734059        3       0.00000000      -0.00129803      -0.00273102      -0.00606295
Au       5.90376386      11.79335666       6.22877358        3       0.00000000      -0.00033828       0.00068146      -0.00500542
Au       8.84849533      11.79785397       6.22855582        3       0.00000000      -0.00020632       0.00011155      -0.00383005
Au      11.79279837      11.79279839       6.22874467        3       0.00000000       0.00093070       0.00093146      -0.00508282
O        1.43081812       1.43081821       8.29122896        0       0.00000000       0.00318171       0.00318101       0.01682383
O        1.40630172       1.40630166       9.54472353        0       0.00000000      -0.00064085      -0.00064201       0.04491632
