102
Lattice="14.747579633050908 3.8169445179852467e-07 9.941081283805471e-08 3.8169445179852467e-07 14.747580514872006 -7.47423212986159e-08 0.0 0.0 36.25687252440943" Properties=species:S:1:pos:R:3:tags:I:1:initial_magmoms:R:1:forces:R:3 energy=-314.2293701171875 free_energy=-314.2293701171875 stress="0.007603920355227619 2.74591100609861e-10 2.741235999515831e-09 2.74591100609861e-10 0.0076039292837780425 -5.217533524189149e-10 2.741235999515831e-09 -5.217533524189149e-10 0.0004417705380810561" pbc="T T T"
Au       1.47475800       1.47475809       0.00000006        0       0.00000000      -0.00025248      -0.00025217       0.07766795
Au       4.42427393       1.47475817       0.00000008        0       0.00000000      -0.00031173       0.00033751       0.07740927
Au       7.37378985       1.47475824       0.00000010        0       0.00000000      -0.00000009      -0.00020050       0.07801202
Au      10.32330578       1.47475832       0.00000012        0       0.00000000       0.00031295       0.00033734       0.07740933
Au      13.27282171       1.47475840       0.00000014        0       0.00000000       0.00025286      -0.00025383       0.07766894
Au       1.47475808       4.42427420       0.00000004        0       0.00000000       0.00033907      -0.00031218       0.07740751
Au       4.42427401       4.42427427       0.00000006        0       0.00000000       0.00044626       0.00044490       0.07696059
Au       7.37378993       4.42427435       0.00000008        0       0.00000000       0.00000060      -0.00065441       0.07871118
Au      10.32330586       4.42427442       0.00000010        0       0.00000000      -0.00044573       0.00044556       0.07696167
Au      13.27282178       4.42427450       0.00000012        0       0.00000000      -0.00033954      -0.00031056       0.07740883
Au       1.47475815       7.37379030       0.00000003        0       0.00000000      -0.00019866       0.00000020       0.07801014
Au       4.42427408       7.37379037       0.00000005        0       0.00000000      -0.00065321       0.00000036       0.07870957
Au       7.37379001       7.37379045       0.00000007        0       0.00000000      -0.00000070       0.00000069       0.07935238
Au      10.32330593       7.37379053       0.00000009        0       0.00000000       0.00065585      -0.00000022       0.07871050
Au      13.27282186       7.37379060       0.00000011        0       0.00000000       0.00019792      -0.00000070       0.07801174
Au       1.47475823      10.32330640       0.00000001        0       0.00000000       0.00033767       0.00031098       0.07740834
Au       4.42427416      10.32330648       0.00000003        0       0.00000000       0.00044738      -0.00044588       0.07695977
Au       7.37379008      10.32330655       0.00000005        0       0.00000000      -0.00000070       0.00065479       0.07870966
Au      10.32330601      10.32330663       0.00000007        0       0.00000000      -0.00044692      -0.00044687       0.07696074
Au      13.27282194      10.32330670       0.00000009        0       0.00000000      -0.00033803       0.00031037       0.07741015
Au       1.47475831      13.27282250       0.00000000        0       0.00000000      -0.00025259       0.00025372       0.07766786
Au       4.42427423      13.27282257       0.00000002        0       0.00000000      -0.00031124      -0.00033688       0.07740904
Au       7.37379016      13.27282265       0.00000004        0       0.00000000      -0.00000110       0.00019999       0.07801153
Au      10.32330609      13.27282272       0.00000006        0       0.00000000       0.00031151      -0.00033630       0.07740959
Au      13.27282201      13.27282280       0.00000008        0       0.00000000       0.00025200       0.00025349       0.07766808
Au       0.00000001      -0.00000001       2.08562419        1       0.00000000      -0.00000026      -0.00000090      -0.08442052
Au       2.94951594       0.00000007       2.08562421        1       0.00000000      -0.00460410      -0.00000044      -0.07293528
Au       5.89903187       0.00000014       2.08562423        1       0.00000000       0.00348648      -0.00000119      -0.08376912
Au       8.84854779       0.00000021       2.08562425        1       0.00000000      -0.00348473      -0.00000065      -0.08376835
Au      11.79806373       0.00000029       2.08562427        1       0.00000000       0.00460188      -0.00000803      -0.07293327
Au       0.00000009       2.94951609       2.08562417        1       0.00000000       0.00000153      -0.00460580      -0.07293537
Au       2.94951602       2.94951617       2.08562419        1       0.00000000      -0.00352930      -0.00353059      -0.07717152
Au       5.89903194       2.94951624       2.08562421        1       0.00000000       0.00346454       0.00295729      -0.08358906
Au       8.84854787       2.94951632       2.08562423        1       0.00000000      -0.00346368       0.00295771      -0.08358845
Au      11.79806380       2.94951640       2.08562425        1       0.00000000       0.00352843      -0.00352935      -0.07717412
Au       0.00000017       5.89903220       2.08562416        1       0.00000000      -0.00000252       0.00348583      -0.08376691
Au       2.94951609       5.89903227       2.08562418        1       0.00000000       0.00295575       0.00346391      -0.08358824
Au       5.89903202       5.89903235       2.08562420        1       0.00000000       0.00248681       0.00248523      -0.08152480
Au       8.84854795       5.89903242       2.08562422        1       0.00000000      -0.00248631       0.00248296      -0.08152653
Au      11.79806387       5.89903250       2.08562424        1       0.00000000      -0.00295488       0.00346482      -0.08358890
Au       0.00000024       8.84854830       2.08562414        1       0.00000000      -0.00000226      -0.00348436      -0.08376582
Au       2.94951617       8.84854838       2.08562416        1       0.00000000       0.00295630      -0.00346338      -0.08358814
Au       5.89903210       8.84854846       2.08562418        1       0.00000000       0.00248597      -0.00248853      -0.08152644
Au       8.84854802       8.84854853       2.08562420        1       0.00000000      -0.00248537      -0.00248654      -0.08152596
Au      11.79806395       8.84854861       2.08562422        1       0.00000000      -0.00295525      -0.00346840      -0.08358917
Au       0.00000032      11.79806441       2.08562413        1       0.00000000      -0.00000148       0.00460450      -0.07293396
Au       2.94951625      11.79806448       2.08562415        1       0.00000000      -0.00352897       0.00353017      -0.07717177
Au       5.89903217      11.79806455       2.08562417        1       0.00000000       0.00346531      -0.00295309      -0.08358683
Au       8.84854810      11.79806463       2.08562419        1       0.00000000      -0.00346402      -0.00295401      -0.08358538
Au      11.79806403      11.79806471       2.08562421        1       0.00000000       0.00352822       0.00353190      -0.07717257
Au       1.47292377       1.47292340       4.16487675        2       0.00000000       0.00118145       0.00117876      -0.00004316
Au       4.42694711       1.47764010       4.15716388        2       0.00000000      -0.00134566      -0.00002022       0.00033720
Au       7.37378997       1.47574279       4.16082303        2       0.00000000       0.00000099       0.00002348      -0.00068866
Au      10.32063336       1.47763978       4.15716454        2       0.00000000       0.00134735      -0.00000045       0.00032789
Au      13.27465629       1.47292371       4.16487646        2       0.00000000      -0.00117955       0.00117919      -0.00004032
Au       1.47764028       4.42694719       4.15716467        2       0.00000000      -0.00001990      -0.00134539       0.00033623
Au       4.42750048       4.42750079       4.16040937        2       0.00000000      -0.00079521      -0.00079824      -0.00031341
Au       7.37379061       4.42534888       4.16184509        2       0.00000000      -0.00000358       0.00008503       0.00003196
Au      10.32007983       4.42750078       4.16040913        2       0.00000000       0.00080018      -0.00079815      -0.00030805
Au      13.26994004       4.42694767       4.15716420        2       0.00000000       0.00001677      -0.00134525       0.00033853
Au       1.47574299       7.37378970       4.16082433        2       0.00000000       0.00002374       0.00000216      -0.00072443
Au       4.42534932       7.37379044       4.16184363        2       0.00000000       0.00008706      -0.00000015       0.00006521
Au       7.37378948       7.37379039       4.16173572        2       0.00000000      -0.00000223      -0.00000228      -0.00019617
Au      10.32223149       7.37379032       4.16184352        2       0.00000000      -0.00008041       0.00000089       0.00004866
Au      13.27183710       7.37379050       4.16082716        2       0.00000000      -0.00002629       0.00000015      -0.00072227
Au       1.47764011      10.32063304       4.15716457        2       0.00000000      -0.00001990       0.00134557       0.00034045
Au       4.42750058      10.32007972       4.16040959        2       0.00000000      -0.00079940       0.00079876      -0.00030950
Au       7.37379002      10.32223163       4.16184428        2       0.00000000       0.00000198      -0.00007794       0.00005040
Au      10.32007957      10.32008006       4.16040963        2       0.00000000       0.00079596       0.00080167      -0.00030852
Au      13.26993976      10.32063302       4.15716437        2       0.00000000       0.00002370       0.00134591       0.00033846
Au       1.47292427      13.27465671       4.16487666        2       0.00000000       0.00117600      -0.00117835      -0.00003968
Au       4.42694690      13.26994013       4.15716472        2       0.00000000      -0.00134274       0.00001933       0.00033661
Au       7.37379014      13.27183760       4.16082684        2       0.00000000      -0.00000217      -0.00002722      -0.00072517
Au      10.32063309      13.26994113       4.15716481        2       0.00000000       0.00134311       0.00001390       0.00033717
Au      13.27465581      13.27465676       4.16487655        2       0.00000000      -0.00117273      -0.00117932      -0.00004170
Au       0.00000011      -0.00000013       6.22724990        3       0.00000000       0.00000042       0.00000066      -0.00574940
Au       2.96692059      -0.00000005       6.21119768        3       0.00000000       0.00047688       0.00000128       0.00069681
Au       5.90254537       0.00000054       6.22165185        3       0.00000000       0.00059934       0.00000069       0.00001472
Au       8.84503319       0.00000048       6.22165170        3       0.00000000      -0.00059698       0.00000171       0.00001572
Au      11.78065896       0.00000022       6.21119735        3       0.00000000      -0.00047971       0.00000173       0.00069854
Au       0.00000037       2.96692076       6.21119750        3       0.00000000      -0.00000126       0.00047812       0.00069861
Au       2.95520247       2.95520242       6.21779638        3       0.00000000      -0.00046881      -0.00046833       0.00275142
Au       5.90047179       2.95010960       6.22350454        3       0.00000000      -0.00085666      -0.00045080      -0.00130469
Au       8.84710900       2.95010984       6.22350522        3       0.00000000       0.00086020      -0.00045939      -0.00128926
Au      11.79237827       2.95520116       6.21779719        3       0.00000000       0.00046940      -0.00046524       0.00274672
Au       0.00000054       5.90254529       6.22165192        3       0.00000000       0.00000047       0.00058258       0.00002509
Au       2.95010979       5.90047278       6.22350352        3       0.00000000      -0.00044839      -0.00083869      -0.00129956
Au       5.89982825       5.89982659       6.22477460        3       0.00000000      -0.00019687      -0.00019282      -0.00035843
Au       8.84775078       5.89983069       6.22477059        3       0.00000000       0.00018676      -0.00020158      -0.00037196
Au      11.79747073       5.90047146       6.22350572        3       0.00000000       0.00044381      -0.00083537      -0.00130805
Au       0.00000062       8.84503465       6.22165194        3       0.00000000       0.00000069      -0.00058027       0.00002299
Au       2.95010986       8.84710800       6.22350496        3       0.00000000      -0.00044971       0.00083970      -0.00130630
Au       5.89982882       8.84775091       6.22477181        3       0.00000000      -0.00019121       0.00019182      -0.00039621
Au       8.84775033       8.84775080       6.22477087        3       0.00000000       0.00019934       0.00021570      -0.00034046
Au      11.79747011       8.84710919       6.22350635        3       0.00000000       0.00044669       0.00082782      -0.00132307
Au       0.00000042      11.78065942       6.21119785        3       0.00000000       0.00000068      -0.00048049       0.00069563
Au       2.95520172      11.79237863       6.21779740        3       0.00000000      -0.00047079       0.00046454       0.00274894
Au       5.90047028      11.79747101       6.22350648        3       0.00000000      -0.00082622       0.00044640      -0.00130948
Au       8.84710941      11.79747068       6.22350613        3       0.00000000       0.00082845       0.00044518      -0.00130969
Au      11.79237900      11.79237956       6.21779794        3       0.00000000       0.00046540       0.00046474       0.00274806
O       -0.00000047       0.00000070       9.27694557        0       0.00000000      -0.00000005       0.00000009       0.04138399
O        0.00000010      -0.00000025      10.51509702        0       0.00000000      -0.00000002       0.00000000       0.03469153
