64
Lattice="10.280526341399945 0.0023180829175292544 -0.04109870838218889 5.142270689394629 8.82846533193737 -0.08336230048790369 0.0 0.0 21.551169570037054" Properties=species:S:1:pos:R:3:tags:I:1:initial_magmoms:R:1:forces:R:3 unique_id=eb7a4a8f35db4c4faa512596f8f726bc energy=-373.28255955141765 stress="0.005710782977543426 -1.0306309764552836e-05 -0.0002846435649476563 -1.0306309764552836e-05 0.0046652475297264615 -5.651838207521112e-05 -0.0002846435649476563 -5.651838207521112e-05 -0.0020616843345326805" pbc="T T T"
Ni       0.03089419      -0.04643750       0.21338599        2       1.00000000       0.13551211      -0.02104799      -0.15390185
Ni       2.53826859      -0.03916114       0.22009253        2       1.00000000      -0.04981366      -0.00800690      -0.04557010
Ni       5.13108293      -0.03064345       0.17207442        2       1.00000000      -0.07940793       0.07287626      -0.43061777
Ni       7.69866597      -0.06049352       0.17042079        2       1.00000000      -0.07498161      -0.04392901      -0.23430886
Ni       1.28053086       2.20723137       0.19322149        2       1.00000000      -0.00997957      -0.00900331       0.09818688
Pt       3.77169327       2.17505654       0.18628188        2       0.00000000       0.00449889      -0.00951416      -0.51975942
Pt       6.43113957       2.17162707       0.09063901        1       0.00000000      -0.03178457      -0.01501398      -0.21314751
Pt       9.06135380       2.25143155       0.09978058        1       0.00000000       0.05113479       0.06695125      -0.66257545
Ni       2.54095824       4.44014800       0.05698531        1       1.00000000       0.02263020       0.00496942       0.19093704
Pt       5.12901674       4.50993472       0.06835260        1       0.00000000      -0.07191692      -0.02360898      -0.02418209
Ni       7.71191983       4.45885022       0.03650966        0       1.00000000      -0.02844323       0.04580502       0.09645148
Ni      10.30442251       4.44415339       0.01884189        0       1.00000000       0.06343615       0.06471076       0.19015045
Ni       3.83048035       6.65150829       0.06912261        1       1.00000000      -0.03896846       0.07659073       0.33640821
Ni       6.43779029       6.65938774       0.06842296        1       1.00000000       0.00248640       0.05734140       0.34286024
Ni       8.96987039       6.62015275       0.09331551        1       1.00000000      -0.12864972       0.05538700      -0.25967123
Ni      11.58556226       6.61593742       0.00000000        0       1.00000000       0.05944823       0.01195246       0.21282009
Ni       1.30562566       0.72277913       2.22715414        4       1.00000000       0.02545909       0.03135512       0.24216281
Ni       3.79466759       0.72343849       2.21251371        4       1.00000000      -0.19611283      -0.03736374       0.12352760
Ni       6.43075416       0.73056998       2.19989653        4       1.00000000       0.08228009       0.04459431       0.12559225
Pt       9.00610336       0.71871479       2.20282345        4       0.00000000       0.08824495       0.08709134      -0.03505511
Ni       2.55060162       2.90193920       2.25933407        5       1.00000000       0.03894124      -0.10426278       0.26989039
Ni       5.11993838       2.95628616       2.21076100        4       1.00000000      -0.07254218       0.13698079       0.11424811
Ni       7.68377770       2.92819011       2.20859828        4       1.00000000      -0.03455038      -0.05508559       0.10133125
Ni      10.32275926       2.91201131       2.22019557        4       1.00000000       0.11014452      -0.09494879       0.29582807
Ni       3.85612141       5.13895439       2.18409681        4       1.00000000       0.00757619      -0.05813119       0.09013206
Ni       6.40818163       5.16362057       2.15832985        4       1.00000000       0.00977277       0.03646936       0.02984501
Pt       8.93407610       5.10220530       2.16711553        4       0.00000000       0.01322583      -0.08867278       0.04823715
Pt      11.62535892       5.09278453       2.15843116        4       0.00000000       0.04721924      -0.11267423       0.08191338
Ni       5.16456867       7.31624764       2.11753939        3       1.00000000       0.02509550      -0.06817888       0.00329651
Ni       7.63635084       7.35986344       2.11430299        3       1.00000000      -0.17604516      -0.01419028       0.10656515
Pt      10.31007314       7.38108619       2.09430772        3       0.00000000       0.06185289      -0.02749410       0.08993252
Ni      12.86467345       7.32399412       2.09064302        3       1.00000000       0.11698101      -0.08735286       0.00979845
Ni       0.02245657       1.47249675       4.32271798        7       1.00000000       0.15276727       0.03964596      -0.19817658
Ni       2.50531524       1.47223705       4.28803089        7       1.00000000      -0.08846520       0.03224659      -0.24201514
Pt       5.13905700       1.44238293       4.23125266        6       0.00000000      -0.07316284      -0.05916022      -0.06116453
Ni       7.69787373       1.44640743       4.29524017        7       1.00000000       0.04617279      -0.07332419      -0.27206543
Ni       1.27360643       3.66460494       4.33068510        7       1.00000000       0.04100351      -0.05434318      -0.10820175
Ni       3.77750737       3.68289735       4.28680199        7       1.00000000      -0.14776082       0.00010134      -0.28300481
Pt       6.48473494       3.66104708       4.30512156        7       0.00000000       0.07796097      -0.06717075      -0.13059774
Ni       9.02865939       3.67898685       4.28201341        7       1.00000000       0.21538248       0.01054247      -0.14600799
Ni       2.52326889       5.82362560       4.35818476        8       1.00000000      -0.03254954      -0.06209581      -0.05070361
Pt       5.12177441       5.85393337       4.29733883        7       0.00000000       0.04380826       0.00539592      -0.10044420
Ni       7.69456689       5.84669426       4.29825365        7       1.00000000      -0.02586216       0.03618107      -0.14428270
Ni      10.30574227       5.81210988       4.31776737        7       1.00000000       0.08901422      -0.02189286      -0.07277992
Pt       3.80534631       8.04618402       4.24656274        6       0.00000000      -0.05838157       0.05558268       0.03580724
Ni       6.40555012       8.07548004       4.23455276        6       1.00000000      -0.08674624       0.10890749      -0.27133113
Pt       8.92562292       8.02130006       4.20634247        6       0.00000000      -0.09857267       0.00635399      -0.00171699
Ni      11.55674375       8.01681708       4.24701484        6       1.00000000      -0.06198472      -0.12710623      -0.12746148
Pt      -0.02286651      -0.11431249       6.55116957       12       0.00000000       0.01575950       0.14014127       0.23594537
Pt       2.53569134      -0.07097765       6.53594849       11       0.00000000       0.01537646       0.14730715       0.25304519
Pt       5.14211803      -0.06814206       6.53674665       11       0.00000000       0.06523373      -0.00391176       0.34693863
Pt       7.67527332      -0.09359165       6.51482203       11       0.00000000      -0.11294257       0.07907254       0.31987334
Pt       1.25710100       2.26944893       6.46771365       11       0.00000000       0.04129530      -0.02867967       0.07018059
Pt       3.86782582       2.28186138       6.41322167       10       0.00000000      -0.08315987       0.13177991       0.49577685
Ni       6.40953679       2.20573615       6.40301547       10       1.00000000      -0.01985289      -0.02419920       0.24385118
Pt       8.92507056       2.25815763       6.33862917        9       0.00000000       0.03740940      -0.07132992       0.57571293
Ni       2.54321594       4.45179427       6.43648867       10       1.00000000       0.10774478      -0.00427649      -0.30726676
Ni       5.13172136       4.41724854       6.39081399       10       1.00000000      -0.03066776       0.02636330       0.14683678
Ni       7.65067661       4.38485726       6.44642888       10       1.00000000      -0.09998953      -0.00450902      -0.04717605
Ni      10.29488711       4.40655987       6.40643583       10       1.00000000       0.06041874      -0.02207121      -0.23744186
Ni       3.81703991       6.50909672       6.45755521       11       1.00000000      -0.00803459      -0.09608064      -0.21613755
Ni       6.39447127       6.51695239       6.44400853       10       1.00000000       0.03975304      -0.03925274      -0.16122019
Pt       8.98064092       6.44825219       6.45264359       11       0.00000000       0.01181319      -0.03026438       0.09467004
Ni      11.57333319       6.50985360       6.39585042       10       1.00000000      -0.00552458       0.05545091      -0.26076741
