64
Lattice="9.845031725102931 -0.006367937510658554 0.0008848687456452192 4.917001066897575 8.531996242845192 0.004500681426585345 0.0007224923053891169 0.0038261520152612846 8.408525167536654" Properties=species:S:1:pos:R:3:tags:I:1:initial_magmoms:R:1:forces:R:3 unique_id=bf2ccc8449774316afa04329b90dfa3d stress="-0.00039854614471462185 -7.111771535350153e-07 6.399890648993441e-06 -7.111771535350153e-07 -0.00039809440016078806 -7.144185588943522e-07 6.399890648993441e-06 -7.144185588943522e-07 -0.0003345347393518064" energy=-378.11200021791376 pbc="T T T"
Ni      -0.02213529       0.04146433       0.11219958        4       1.00000000      -0.02512588       0.04098457       0.06851611
Ni       2.48150309       0.04203251       0.10562662        4       1.00000000      -0.00343760       0.03710137       0.04161125
Ni       4.90336668      -0.04770530       0.10775330        4       1.00000000      -0.00084482      -0.03841860       0.07936003
Ni       7.40000933      -0.04947556       0.11470823        4       1.00000000      -0.00452038      -0.03343423       0.10218954
Ni       1.22988703       2.14338598       0.11128735        4       1.00000000      -0.02962363       0.04335404       0.03627220
Ni       3.63788935       2.13594306       0.10726639        4       1.00000000      -0.03903311       0.02683254       0.06621784
Pt       6.14471524       2.11709857       0.07313829        4       0.00000000      -0.01522828      -0.00366381      -0.05104054
Ni       8.65765344       2.13119475       0.21355503        4       1.00000000       0.01311378       0.03096379       0.34783692
Ni       2.44315530       4.26710307       0.10851478        4       1.00000000      -0.06046811       0.00550464       0.05866787
Ni       4.85939756       4.26448723       0.11715524        4       1.00000000      -0.07855005       0.00302131       0.11211161
Ni       7.43245532       4.26100590       0.21634192        4       1.00000000       0.05654920      -0.01053559       0.36719764
Ni       9.86072219       4.26479620       0.11988775        4       1.00000000       0.03956608       0.00184787       0.07165722
Ni       3.63532532       6.39730692       0.10993564        4       1.00000000      -0.03408776      -0.01224488       0.08630084
Pt       6.14571490       6.41085835       0.06960538        4       0.00000000      -0.00987876       0.00133216      -0.09269698
Ni       8.66093827       6.39457487       0.11575072        4       1.00000000       0.02628449      -0.03548284       0.07267797
Ni      11.07142987       6.38676753       0.11022251        4       1.00000000      -0.00433222      -0.02441449       0.06562344
Ni       1.23389186       0.71647750       2.12540575        3       1.00000000       0.02080070       0.00672339      -0.04010083
Ni       3.69082958       0.71152099       2.13444571        3       1.00000000       0.00819269       0.00874018      -0.00459881
Ni       6.15066656       0.67587433       2.16738064        3       1.00000000      -0.01688965       0.03469117      -0.07410110
Ni       8.61450489       0.69527098       2.14705012        3       1.00000000      -0.01185086      -0.02498721       0.07582896
Ni       2.45436893       2.84626390       2.13560527        3       1.00000000      -0.01063138       0.00999370       0.04810296
Ni       4.89037355       2.85045049       2.16934704        3       1.00000000       0.02053136      -0.04468984      -0.07412473
Ni       7.39925857       2.84340856       2.18353974        3       1.00000000      -0.06114453      -0.05214923       0.01674166
Ni       9.86238949       2.84703088       2.14535995        3       1.00000000       0.04310369       0.02497576       0.08664505
Ni       3.67648746       4.97947882       2.13963501        3       1.00000000      -0.03872751       0.00773085       0.05124219
Ni       6.14040600       4.96092700       2.17490069        3       1.00000000      -0.02680514       0.07604186      -0.06386434
Ni       8.63249663       4.98388953       2.14765932        3       1.00000000       0.05264713       0.02332388       0.07687076
Ni      11.07591153       4.97483344       2.13685334        3       1.00000000       0.02233347       0.01260157       0.07129573
Ni       4.89310871       7.12402938       2.17087393        3       1.00000000       0.04103516      -0.03142405      -0.07377140
Ni       7.40478455       7.12708199       2.16414699        3       1.00000000      -0.03163866       0.00653741      -0.12631251
Ni       9.84615586       7.10379691       2.14249490        3       1.00000000       0.01812247      -0.00454914       0.06672043
Ni      12.29651109       7.09918769       2.14428849        3       1.00000000      -0.01764627      -0.02315251       0.08841644
Ni       0.03322094       1.40594707       4.12857776        2       1.00000000      -0.03206056       0.03496750       0.06999859
Ni       2.46710603       1.42206986       4.16992315        2       1.00000000       0.01335704       0.00342443      -0.08676485
Ni       4.90107122       1.40833844       4.15775485        2       1.00000000      -0.03252325      -0.02513504      -0.09584516
Ni       7.36727764       1.39553037       4.13770056        2       1.00000000       0.05670977      -0.01723985       0.06859450
Ni       1.23957484       3.55970718       4.17347724        2       1.00000000       0.01548562       0.00334093      -0.01792149
Ni       3.67918867       3.55333285       4.17652177        2       1.00000000      -0.04290969      -0.00988145      -0.04070487
Ni       6.12219829       3.54921691       4.14042687        2       1.00000000       0.02139007       0.04170281       0.07126419
Ni       8.63549079       3.56354058       4.12648980        2       1.00000000      -0.01450934      -0.01566879       0.16657767
Ni       2.45546345       5.68961122       4.17931267        2       1.00000000      -0.01607768      -0.00549471      -0.02817944
Ni       4.90356354       5.68778351       4.16759382        2       1.00000000      -0.03294576      -0.00363535      -0.06634545
Ni       7.38831913       5.72285264       4.12623011        2       1.00000000       0.01951562      -0.04681762       0.04505347
Ni       9.85091166       5.69348104       4.17560978        2       1.00000000       0.02029108       0.00708177      -0.01468318
Ni       3.68586361       7.81750229       4.18251750        2       1.00000000      -0.00554728      -0.00734059       0.00885268
Ni       6.15293656       7.83646215       4.15809745        2       1.00000000       0.02569590       0.03864232      -0.13882930
Ni       8.61278299       7.82804426       4.17754980        2       1.00000000       0.01018350       0.02006636      -0.06136198
Ni      11.06534414       7.81137593       4.18078381        2       1.00000000      -0.01664341      -0.02581680      -0.01957963
Ni       0.03430912      -0.04963139       6.19494528        1       1.00000000       0.02567147      -0.00798162      -0.08710633
Ni       2.47104401       0.00807402       6.19390897        1       1.00000000       0.02940340       0.00997064      -0.08352026
Ni       4.91637446      -0.00260600       6.19583953        1       1.00000000       0.00517962       0.03242066      -0.05358922
Ni       7.35735729      -0.06116343       6.19611115        1       1.00000000      -0.00604366      -0.04766254      -0.05358275
Ni       1.29683948       2.13189184       6.19989127        1       1.00000000       0.05130985      -0.01833226      -0.08899996
Ni       3.68607235       2.12854670       6.19608266        1       1.00000000       0.03427758      -0.01959704      -0.06629381
Ni       6.09426512       2.09764509       6.09942965        1       1.00000000      -0.01783910      -0.01986623      -0.35312554
Pt       8.65216705       2.07181215       6.23947650        1       0.00000000       0.08514985      -0.12293766       0.04285805
Ni       2.46327586       4.27151354       6.20381174        1       1.00000000      -0.00264460       0.00423510      -0.03743329
Ni       4.85532853       4.26947603       6.19155615        1       1.00000000      -0.04125334       0.01107023      -0.07571784
Pt       7.35366214       4.32385686       6.23634105        1       0.00000000      -0.05373890       0.11931192       0.05249837
Ni       9.90640629       4.29921313       6.20291237        1       1.00000000       0.03372000       0.01044403      -0.07554062
Ni       3.67809096       6.39565029       6.19902337        1       1.00000000      -0.01689558      -0.03041620      -0.04210994
Ni       6.12268145       6.45159818       6.09901532        1       1.00000000       0.01436435      -0.00394416      -0.37695796
Ni       8.64424792       6.45584165       6.19742281        1       1.00000000       0.01995078       0.04422799      -0.08566297
Ni      11.07752267       6.39801618       6.20558957        1       1.00000000       0.00816102      -0.01629440      -0.03333509
