64
Lattice="10.439625335490012 0.03390981628745313 0.05262954270767262 5.2491794300875965 9.101982389189926 0.0247310247685407 0.0 0.0 21.800252737222372" Properties=species:S:1:pos:R:3:tags:I:1:initial_magmoms:R:1:forces:R:3 unique_id=c2c2c9b2f0df47fbb8f29a1bf3e671d3 stress="0.006023652075806348 4.331587619368468e-05 -1.436121797887687e-05 4.331587619368468e-05 0.006519927811631327 0.00014920988804237816 -1.436121797887687e-05 0.00014920988804237816 -0.0006516872012859304" energy=-383.76417631154635 pbc="T T T"
Pt      -0.06319445       0.04789985       0.02485977        0       0.00000000      -0.19097214       0.02611232      -0.19220351
Ni       2.64301366      -0.01153519       0.07153242        1       1.00000000       0.10487306      -0.04434551       0.35511609
Ni       5.25928962      -0.01319258       0.17802906        2       1.00000000       0.17171866       0.02096959       0.04640607
Ni       7.78992469       0.06055150       0.14241227        1       1.00000000      -0.17437966       0.07632579       0.54907972
Pt       1.26657672       2.29232842       0.00000000        0       0.00000000       0.00549470       0.12095272      -0.32404995
Pt       3.99066307       2.21968599       0.13407166        1       0.00000000       0.16286535       0.05897555      -0.59164216
Ni       6.58309064       2.25051048       0.18375182        2       1.00000000      -0.00208445      -0.17803777       0.28758773
Ni       9.10180905       2.31500520       0.12193074        1       1.00000000      -0.07928021       0.01917337       0.42689254
Pt       2.53863109       4.59372023       0.14533046        1       0.00000000      -0.07393674       0.08278933      -0.70373453
Pt       5.33220343       4.50560186       0.18444039        2       0.00000000       0.13683887      -0.10649494      -0.41691795
Ni       7.90303330       4.54819630       0.18941365        2       1.00000000       0.14173763       0.05381299       0.30293458
Ni      10.40524236       4.61055848       0.13037743        1       1.00000000      -0.11423325       0.17451015       0.42774959
Pt       3.84949494       6.88462852       0.15329957        2       0.00000000      -0.18940282       0.01528157      -0.78957744
Pt       6.64188515       6.81464078       0.15295674        2       0.00000000      -0.01257091      -0.15657001      -0.68289552
Ni       9.20338988       6.82479401       0.11545045        1       1.00000000       0.08123601      -0.10170269       0.45270163
Ni      11.73224103       6.87224730       0.20177174        2       1.00000000       0.04740426      -0.02664785      -0.09592833
Pt       1.30158375       0.76606393       2.27436613        3       0.00000000       0.01301761       0.06770028       0.04204397
Pt       4.04452324       0.75489270       2.32046476        3       0.00000000       0.16295301      -0.10709990       0.21359289
Ni       6.58256442       0.78710093       2.28764986        3       1.00000000       0.15161220       0.00694113       0.06958573
Ni       9.08003576       0.79621603       2.30264536        3       1.00000000      -0.14789991       0.05076011       0.04543316
Pt       2.64796606       3.06227858       2.34235932        3       0.00000000      -0.02784199      -0.00564386       0.16824223
Ni       5.28234513       3.03049391       2.35651031        4       1.00000000       0.02564871      -0.06029404       0.47858378
Pt       7.78282257       3.04426334       2.32231309        3       0.00000000      -0.04003760      -0.04762096       0.12146081
Pt      10.38348285       3.13597053       2.29941646        3       0.00000000      -0.07030187      -0.00918147       0.00813839
Pt       3.95488629       5.29121541       2.33782275        3       0.00000000       0.08197698      -0.03683741       0.10870026
Ni       6.59909926       5.27898939       2.32960359        3       1.00000000       0.15572046      -0.09535272       0.31613266
Ni       9.15952163       5.32018795       2.31942828        3       1.00000000      -0.03546764      -0.03978147       0.12948765
Ni      11.73308059       5.35782935       2.32991314        3       1.00000000      -0.02742283      -0.07454937       0.16071269
Pt       5.21355879       7.60051539       2.31628008        3       0.00000000      -0.01885199       0.02933248       0.07617324
Pt       7.92638200       7.50391740       2.33033832        3       0.00000000       0.09135883      -0.03735323       0.14291282
Pt      10.55022741       7.53580450       2.25989857        3       0.00000000      -0.00455799      -0.08575905       0.17615890
Ni      13.05822850       7.65855460       2.32862785        3       1.00000000       0.03577456       0.15752630       0.11195213
Pt      -0.07759417       1.58252625       4.57082846        7       0.00000000      -0.27597790       0.20315223      -0.17354082
Pt       2.65746357       1.53971663       4.52236928        6       0.00000000       0.04602113       0.06140531      -0.01537577
Ni       5.29085877       1.58139229       4.49728282        6       1.00000000       0.08811173       0.20315693      -0.28531216
Ni       7.82805800       1.58415300       4.51861624        6       1.00000000      -0.13447987       0.20180048      -0.20849312
Pt       1.23733969       3.83473821       4.50727792        6       0.00000000      -0.17141644       0.17521745      -0.09412333
Ni       3.99260054       3.76686743       4.49789416        6       1.00000000       0.12829987      -0.06558594      -0.32666793
Ni       6.58934109       3.76425841       4.49309773        6       1.00000000       0.06461476      -0.12076467      -0.29039125
Ni       9.12329667       3.84930996       4.53888569        6       1.00000000      -0.23710892       0.08433101      -0.20833266
Pt       2.59635276       6.06915101       4.44240162        5       0.00000000      -0.11430029       0.08190747      -0.24947098
Pt       5.34428423       5.98809858       4.46613950        6       0.00000000       0.17278595      -0.12080406      -0.12273310
Ni       7.92254908       6.01417391       4.51998180        6       1.00000000       0.14574825      -0.24081247      -0.26144650
Ni      10.42500123       6.06252570       4.55474417        7       1.00000000      -0.16400582      -0.02988820      -0.10201650
Pt       3.92080065       8.41153233       4.49405094        6       0.00000000      -0.09304949       0.07586455      -0.15450940
Pt       6.57869264       8.35899301       4.55390256        7       0.00000000      -0.12689724      -0.01318297      -0.08172136
Pt       9.19918248       8.28031410       4.59128906        7       0.00000000       0.01954078      -0.13073378       0.05868276
Pt      11.78325903       8.44835501       4.50549228        6       0.00000000      -0.12743635       0.23870589      -0.13426909
Ni       0.02591497       0.05384239       6.64471990        8       1.00000000      -0.00640487       0.01006114       0.09025399
Ni       2.61718768       0.01453461       6.73511344        9       1.00000000      -0.09433172       0.09472485      -0.21183508
Pt       5.21851861      -0.00401316       6.79898941       10       0.00000000      -0.00478046       0.13418126       0.04185960
Ni       7.88396511       0.05391475       6.75985757       10       1.00000000       0.08127787      -0.02384974      -0.34367164
Ni       1.28948584       2.25164971       6.63575052        8       1.00000000      -0.01754173      -0.00323788       0.13396166
Pt       3.92573758       2.24832051       6.66430485        9       0.00000000       0.07297565       0.04891746       0.70661130
Pt       6.65281518       2.24352665       6.71057973        9       0.00000000      -0.00015253      -0.03177218      -0.19747863
Ni       9.19659675       2.28772289       6.77175921       10       1.00000000       0.06624939      -0.00684368      -0.34905318
Pt       2.59230008       4.51329275       6.67088260        9       0.00000000       0.17266650      -0.12260749       0.60319713
Pt       5.29289927       4.53160565       6.66381089        9       0.00000000       0.04919090      -0.00231405       0.50543316
Pt       7.99077951       4.56336217       6.71420837        9       0.00000000      -0.07274479      -0.06825311      -0.34596219
Ni      10.46338155       4.55771240       6.75897105       10       1.00000000       0.05738055      -0.08564400      -0.37192698
Pt       3.95937305       6.90374052       6.68754882        9       0.00000000       0.11986772      -0.05868909       0.65486207
Pt       6.66042729       6.88102904       6.69855051        9       0.00000000      -0.02027250      -0.09631509       0.64538317
Ni       9.18550891       6.82924691       6.75963289       10       1.00000000       0.06269259      -0.03888334      -0.21314185
Pt      11.71537619       6.82797765       6.80025274       10       0.00000000      -0.04751163      -0.10113574      -0.11960115
