64
Lattice="10.440001368791899 0.00998470532125167 0.07984410018467346 5.228647692853453 9.082636093251756 0.0439397217005961 0.0 0.0 21.830450258150723" Properties=species:S:1:pos:R:3:tags:I:1:initial_magmoms:R:1:forces:R:3 unique_id=70cc9876554f426db523b6e48796df36 energy=-384.52818488258913 stress="0.005482752710297413 1.8826109230887694e-06 0.00016645535532481317 1.8826109230887694e-06 0.00594198697559622 0.00010370025699633387 0.00016645535532481317 0.00010370025699633387 -0.0026451199898897566" pbc="T T T"
Pt      -0.06243796       0.04174984       0.04906902        0       0.00000000      -0.10902885      -0.14295440      -0.06335453
Ni       2.64808625      -0.02407677       0.09716598        1       1.00000000       0.08136299      -0.02482052       0.32357378
Ni       5.25200593      -0.05130464       0.20974615        2       1.00000000       0.09399077       0.02237039      -0.07703987
Ni       7.80568572      -0.00027507       0.18008102        2       1.00000000      -0.09994429      -0.08511560       0.39564403
Pt       1.25824074       2.28750265       0.00000000        0       0.00000000       0.02799129       0.12322560      -0.25206510
Pt       3.94104402       2.21118299       0.16063352        2       0.00000000       0.21009367       0.13693465      -0.79005214
Pt       6.61846535       2.19028650       0.20135728        2       0.00000000      -0.24633464      -0.08244177      -0.13942662
Ni       9.13240757       2.30261385       0.16148338        2       1.00000000       0.05032045       0.02581543       0.29596455
Pt       2.52322165       4.60033145       0.17325971        2       0.00000000      -0.08059408       0.08161402      -0.74077000
Pt       5.30165991       4.51676059       0.20945334        2       0.00000000       0.10100343      -0.16422333      -0.50842890
Ni       7.91126806       4.54551328       0.23270526        2       1.00000000       0.05424331       0.07331203       0.26682210
Ni      10.38655709       4.59405360       0.17353817        2       1.00000000      -0.01589998       0.15213357       0.38788057
Pt       3.85680376       6.88527170       0.21199453        2       0.00000000      -0.00314191       0.08236811      -0.67370305
Pt       6.61544832       6.81328255       0.21423467        2       0.00000000      -0.19345950      -0.06608544      -0.64257323
Ni       9.19180210       6.79580646       0.16057404        2       1.00000000       0.03124388      -0.07538995       0.45927660
Ni      11.72098703       6.84231383       0.25023821        3       1.00000000       0.08266533      -0.05150065      -0.09971098
Pt       1.27557453       0.72829100       2.26915138        4       0.00000000       0.04810738       0.00449267       0.11716808
Pt       4.04190762       0.74278263       2.33519087        4       0.00000000       0.07282251      -0.16731395       0.22495978
Ni       6.59591939       0.75462774       2.34026840        4       1.00000000       0.11260582      -0.03372042       0.19503469
Ni       9.08910504       0.75728817       2.32524622        4       1.00000000      -0.08632708       0.02149430       0.02419184
Pt       2.64968220       3.06279562       2.35194820        5       0.00000000      -0.04128653      -0.03479748       0.29231865
Ni       5.27403665       3.02623726       2.39447043        5       1.00000000       0.01092751       0.00764667       0.43731989
Pt       7.80298782       3.04816711       2.41528067        5       0.00000000       0.02621434       0.01699366       0.07755767
Pt      10.39412069       3.10331529       2.31984162        4       0.00000000       0.00460705      -0.01043952       0.05442329
Pt       3.97080205       5.32546228       2.34877593        4       0.00000000       0.10320174       0.06019804       0.25099582
Ni       6.59222692       5.26988453       2.35042107        5       1.00000000       0.08173923      -0.08715392       0.28700167
Ni       9.15500082       5.29870284       2.35129162        5       1.00000000      -0.00403080      -0.03973723       0.13366423
Ni      11.72780652       5.32948414       2.36926151        5       1.00000000      -0.00032465      -0.04409807       0.19714973
Ni       5.22243907       7.57903850       2.31500946        4       1.00000000       0.01262167       0.03712661       0.25348129
Pt       7.88458310       7.47434648       2.36407601        5       0.00000000       0.16370096       0.04767244       0.20158741
Pt      10.53393485       7.49756361       2.30271372        4       0.00000000      -0.04955425      -0.03369302       0.21746473
Ni      13.07108830       7.63534075       2.37502551        5       1.00000000       0.02238096       0.09754978       0.13877996
Pt      -0.07978330       1.58207589       4.55769859        8       0.00000000      -0.15889501       0.12400389      -0.21192058
Pt       2.66022013       1.53243047       4.52335918        7       0.00000000      -0.09848749       0.00388799      -0.21462791
Ni       5.29687531       1.57560013       4.49070083        7       1.00000000       0.02134310       0.12932408      -0.32263555
Ni       7.84364045       1.56004847       4.51180432        7       1.00000000      -0.05308749       0.05494271      -0.18546454
Pt       1.23356487       3.84023582       4.51070714        7       0.00000000      -0.18314578       0.01191773      -0.17780024
Ni       4.00299373       3.76066819       4.49751764        7       1.00000000       0.09883812      -0.00173592      -0.36809336
Ni       6.58767606       3.76051606       4.50916811        7       1.00000000      -0.01944677      -0.00343992      -0.23774582
Ni       9.11756003       3.83293684       4.55350225        8       1.00000000      -0.14666329       0.01425645      -0.15829877
Pt       2.58901959       6.06500286       4.45260904        7       0.00000000      -0.05428545       0.08067477      -0.28138587
Pt       5.34781150       5.99786800       4.45810613        7       0.00000000       0.03850658      -0.06114935      -0.30887331
Ni       7.92206893       5.98308721       4.53202650        7       1.00000000       0.07751909      -0.15520215      -0.21544083
Ni      10.41411607       6.03380207       4.57988489        8       1.00000000      -0.10901707      -0.00497233      -0.06824587
Pt       3.92849410       8.37653704       4.44192565        6       0.00000000      -0.05407477       0.03221336      -0.24829072
Pt       6.55465006       8.33174050       4.55239862        8       0.00000000      -0.06799696       0.12763597      -0.21551249
Pt       9.18483309       8.24928231       4.62312878        8       0.00000000      -0.03984539      -0.07843749      -0.01523947
Pt      11.77713092       8.42566059       4.54114573        7       0.00000000      -0.05088088       0.12617473      -0.09343990
Ni       0.03970626       0.05973864       6.62915553        9       1.00000000      -0.03847695      -0.02321633       0.05305382
Ni       2.62427052       0.01742367       6.72950859       10       1.00000000      -0.08814356       0.07472171      -0.18062575
Pt       5.22638279      -0.01848660       6.80938182       11       0.00000000       0.01744595       0.19960301       0.05568279
Ni       7.90358048       0.03737506       6.75704751       11       1.00000000       0.05078946       0.00776602      -0.36636169
Ni       1.28953088       2.24617906       6.61711414        9       1.00000000       0.01471636       0.01444280       0.22228247
Pt       3.92900170       2.23848734       6.64886412        9       0.00000000       0.18445729       0.10442530       0.83529941
Pt       6.66259244       2.22903501       6.62766696        9       0.00000000      -0.06249090      -0.02590428       0.30232943
Ni       9.21232640       2.26941257       6.78666634       11       1.00000000      -0.00500137       0.00070449      -0.33842829
Pt       2.59485827       4.50419209       6.66387451       10       0.00000000       0.22744650      -0.10737673       0.67471807
Pt       5.29844183       4.52737912       6.65730907       10       0.00000000       0.01733596      -0.08212007       0.56210193
Pt       8.00030887       4.54725222       6.73264228       10       0.00000000      -0.13925126      -0.07000592      -0.30421969
Ni      10.46642155       4.52608680       6.77702555       11       1.00000000       0.05384624      -0.06294091      -0.32578106
Pt       3.96087782       6.90309097       6.69143915       10       0.00000000       0.08942264      -0.04722113       0.53552648
Pt       6.65931255       6.86914132       6.70683181       10       0.00000000      -0.02520717      -0.12119256       0.62303605
Ni       9.18555495       6.80172113       6.77859321       11       1.00000000       0.05343007      -0.03584291      -0.16539168
Pt      11.71028676       6.79449146       6.83045026       11       0.00000000      -0.01261755      -0.07339970      -0.10534302
