64
Lattice="9.91534906750514 0.012595832941163676 0.008169962385945275 4.9685828450615 8.61358451405626 0.006622797634072561 0.006670746354432507 0.002392676286544513 8.473528938106405" Properties=species:S:1:pos:R:3:tags:I:1:initial_magmoms:R:1:forces:R:3 unique_id=6730d3014f4e445d903f529aa8be95f3 stress="-0.0009242558396636569 1.8044303501428557e-07 1.991113145032334e-06 1.8044303501428557e-07 -0.0009243976308462368 1.7975455634983238e-06 1.991113145032334e-06 1.7975455634983238e-06 -0.0007954325313521832" energy=-380.7635455771842 pbc="T T T"
Ni      -0.03931840       0.05571004       0.10776512        4       1.00000000      -0.00569622      -0.03836578       0.09529204
Ni       2.48020014       0.00089123       0.11935242        4       1.00000000      -0.00948389      -0.00180992       0.20275033
Ni       4.99781878      -0.04908972       0.12035554        4       1.00000000       0.05253134      -0.00769369       0.16538984
Ni       7.43811886       0.00033094       0.11480209        4       1.00000000      -0.00847616      -0.00719054       0.08158906
Ni       1.17572735       2.15124453       0.11487285        4       1.00000000      -0.02373912      -0.02317255       0.10935651
Pt       3.66572374       2.08329583       0.01845791        4       0.00000000      -0.06015797      -0.09759364      -0.16602323
Ni       6.24610006       2.07576347       0.09332648        4       1.00000000       0.06471209      -0.07814628       0.08467321
Ni       8.71021093       2.10107108       0.11402108        4       1.00000000      -0.07842274       0.00927075       0.07296585
Ni       2.41084897       4.34079181       0.11793915        4       1.00000000       0.02130371       0.02795749       0.14765481
Pt       4.90366372       4.34516640       0.02897305        4       0.00000000      -0.12124987       0.05911242      -0.06225372
Pt       7.54014344       4.26983673       0.07551927        4       0.00000000       0.17343246      -0.08011148       0.06153522
Ni       9.99041553       4.32065083       0.12674546        4       1.00000000      -0.01362331       0.02335405       0.15495137
Ni       3.64762686       6.52296046       0.11484577        4       1.00000000      -0.03391701       0.07099860       0.10726170
Pt       6.20761247       6.56453574       0.06821510        4       0.00000000      -0.01575871       0.17934798      -0.04742770
Ni       8.76148061       6.49939172       0.12661142        4       1.00000000       0.05136398      -0.01218228       0.18030864
Ni      11.16676799       6.47468689       0.11697385        4       1.00000000       0.03772623       0.01799779       0.04032093
Ni       1.22470938       0.71584847       2.14809826        3       1.00000000      -0.02896897      -0.01845724       0.06539114
Ni       3.70427529       0.67381987       2.15155487        3       1.00000000       0.02604796       0.05305019      -0.04844742
Ni       6.23527934       0.67170710       2.15657505        3       1.00000000       0.01185440      -0.01517647       0.13338852
Ni       8.67819913       0.71946775       2.16235343        3       1.00000000      -0.01382764      -0.04052464       0.11630439
Ni       2.43861774       2.87337516       2.13542000        3       1.00000000       0.02323965      -0.04344703      -0.08355212
Pt       4.98484301       2.85531724       2.22769625        3       0.00000000      -0.01908291       0.00190901      -0.16379258
Ni       7.49852732       2.84119196       2.19678177        3       1.00000000       0.00790290       0.00762761      -0.01039018
Ni       9.90170936       2.87033060       2.13017738        3       1.00000000      -0.04118385      -0.01867236       0.05283449
Ni       3.68258657       5.07980356       2.18658395        3       1.00000000       0.01887249       0.00434134      -0.01911739
Ni       6.22874264       5.06914587       2.21729620        3       1.00000000       0.01589828       0.00182155      -0.11761906
Ni       8.72040917       5.04753403       2.19924045        3       1.00000000      -0.00518952      -0.03432025       0.01936777
Ni      11.15761971       5.06638398       2.13686802        3       1.00000000       0.02218438       0.06864507       0.11015481
Ni       4.93438860       7.20690340       2.19656346        3       1.00000000       0.02092552       0.00102708      -0.05705523
Ni       7.45691459       7.18650005       2.17221206        3       1.00000000      -0.08788100      -0.06057743      -0.04750067
Ni       9.95733026       7.17245126       2.13600212        3       1.00000000       0.06557795      -0.01182992       0.13468802
Ni      12.39973510       7.19712601       2.16531551        3       1.00000000       0.00555891       0.01265644       0.11525521
Ni      -0.02473908       1.39872645       4.21506546        2       1.00000000      -0.03136305       0.00015113      -0.02709438
Ni       2.46681693       1.42968776       4.20796569        2       1.00000000      -0.04281403      -0.02113704      -0.11692217
Ni       5.00519944       1.43607292       4.26402022        2       1.00000000       0.09203335      -0.03023903      -0.06084645
Ni       7.45127715       1.43694479       4.22585111        2       1.00000000       0.02013604      -0.03314655      -0.00895790
Pt       1.23703220       3.59104887       4.21272901        2       0.00000000      -0.01031620      -0.01151017       0.11988578
Ni       3.73432386       3.62053622       4.24021069        2       1.00000000      -0.02539232       0.05469414      -0.13159532
Ni       6.23294371       3.59953431       4.24587479        2       1.00000000       0.01144638      -0.02908847      -0.11193399
Ni       8.65241358       3.58648122       4.21609613        2       1.00000000       0.01432983      -0.02917349      -0.02404240
Ni       2.51047988       5.78504141       4.22220818        2       1.00000000      -0.02282393       0.03104160       0.00810112
Ni       4.95912665       5.76185834       4.20259409        2       1.00000000      -0.01490681       0.03449736      -0.12426265
Ni       7.43168176       5.71935290       4.21083695        2       1.00000000       0.01394335      -0.00242535      -0.05656093
Ni       9.92848671       5.75279547       4.23060391        2       1.00000000       0.02213754       0.01049043       0.04123756
Ni       3.72846865       7.89845761       4.22196164        2       1.00000000      -0.02259822       0.01529175       0.00436138
Ni       6.16217786       7.90578489       4.21268204        2       1.00000000      -0.01594664       0.02778537      -0.06785929
Pt       8.69217786       7.89558289       4.23095971        2       0.00000000       0.00667716       0.00041874       0.18341288
Ni      11.21746646       7.90611741       4.23045598        2       1.00000000       0.02724908      -0.01167174       0.01877965
Ni      -0.00590688       0.00151214       6.24879736        1       1.00000000      -0.03677384      -0.02735074      -0.02442050
Ni       2.45565901       0.01521325       6.28138511        1       1.00000000      -0.06505512       0.00117709       0.03593101
Ni       4.98872426       0.02010396       6.29199410        1       1.00000000       0.04335754       0.01646274       0.09351573
Ni       7.44700395       0.01435603       6.26099130        1       1.00000000       0.03028708       0.00801414      -0.00383704
Ni       1.23723936       2.13189989       6.28507045        1       1.00000000      -0.02736460      -0.03122959       0.01366626
Ni       3.72501975       2.16180214       6.14142814        1       1.00000000      -0.02487910       0.02079154      -0.37178102
Ni       6.21375995       2.16126706       6.24529465        1       1.00000000       0.03867184       0.03610560      -0.01006529
Ni       8.67847877       2.15902672       6.25674759        1       1.00000000      -0.00520400       0.00325803      -0.03729651
Ni       2.50631124       4.32799059       6.28235720        1       1.00000000       0.02631364       0.03513999       0.03191359
Ni       4.97095480       4.31926320       6.14084500        1       1.00000000       0.03225879       0.03166664      -0.31495588
Ni       7.44362324       4.31190750       6.16817323        1       1.00000000      -0.01449539      -0.00038970      -0.22657277
Ni       9.90386734       4.32762061       6.29589063        1       1.00000000      -0.04638969      -0.01789330       0.05267006
Ni       3.73073434       6.47007857       6.24720735        1       1.00000000       0.03320233       0.01272026      -0.03222478
Ni       6.20242081       6.46758928       6.15463087        1       1.00000000      -0.01574423      -0.00325846      -0.31484038
Ni       8.68703456       6.44614750       6.29036694        1       1.00000000      -0.04454947      -0.04683685       0.06773819
Ni      11.17150881       6.47614447       6.26740111        1       1.00000000       0.00209929       0.00579807      -0.03339814
