64
Lattice="9.804076522923097 0.00044826069079804563 -0.0013987590060271838 4.902426466607298 8.489820430818916 -0.0020441253502135625 -0.0011420819459630601 -0.0012678385433700643 8.380077511652935" Properties=species:S:1:pos:R:3:tags:I:1:initial_magmoms:R:1:forces:R:3 unique_id=96b6cab802834539b8f0009513d091cd stress="6.526135708754405e-05 -2.6571832817947775e-07 2.7101792430251373e-07 -2.6571832817947775e-07 6.573560866543482e-05 2.1000303530085027e-07 2.7101792430251373e-07 2.1000303530085027e-07 6.847401360640659e-05" energy=-375.6081870583249 pbc="T T T"
Ni      -0.00665887      -0.00419889       0.10405883        4       1.00000000      -0.02122741      -0.01425490       0.05860869
Ni       2.42573995      -0.04593932       0.10626933        4       1.00000000      -0.01724443      -0.03682044       0.09177380
Ni       4.92705634      -0.04613215       0.10504720        4       1.00000000       0.01562346      -0.03943300       0.09141183
Ni       7.35985093      -0.00139342       0.09846954        4       1.00000000       0.02144407       0.00987996       0.01154612
Ni       1.17340358       2.12326444       0.10563322        4       1.00000000      -0.03857405       0.00145686       0.09260640
Pt       3.67658559       2.12227939       0.05681438        4       0.00000000      -0.00450017       0.00106387      -0.04357488
Ni       6.18016917       2.12412211       0.10474334        4       1.00000000       0.03989741       0.00672696       0.07342272
Ni       8.57804414       2.12329874       0.10262527        4       1.00000000      -0.00354182       0.00225385       0.04981348
Ni       2.42379865       4.28860854       0.11038984        4       1.00000000      -0.02572418       0.02671853       0.11817073
Ni       4.93129494       4.28873204       0.09996748        4       1.00000000       0.04484818       0.02088908       0.04272483
Ni       7.36002721       4.24839602       0.10348257        4       1.00000000       0.02073260       0.00796460       0.05848922
Ni       9.79527303       4.24786839       0.09869136        4       1.00000000      -0.04229552      -0.00045683       0.03078347
Ni       3.67777505       6.37554632       0.10832640        4       1.00000000       0.00458901       0.02621213       0.08784210
Ni       6.12823685       6.36744616       0.10232144        4       1.00000000       0.00063983       0.00052729       0.06841777
Ni       8.57871331       6.35964729       0.10296397        4       1.00000000      -0.00099082      -0.02493207       0.07667159
Ni      11.02838283       6.36781215       0.10749701        4       1.00000000      -0.00646350      -0.00072838       0.09721746
Ni       1.22001538       0.70409188       2.12362946        3       1.00000000      -0.00993899      -0.00656900       0.02291957
Ni       3.67633102       0.68046353       2.15746507        3       1.00000000      -0.00012752       0.04832588      -0.06507111
Ni       6.13137546       0.70959076       2.11970510        3       1.00000000       0.00820820       0.01664812       0.00596071
Ni       8.57951305       0.71278857       2.11870310        3       1.00000000       0.00110542       0.01970642       0.03229148
Ni       2.42655623       2.83706604       2.15552573        3       1.00000000       0.03845410      -0.03281875      -0.04855458
Ni       4.92972540       2.83968701       2.15370855        3       1.00000000      -0.01728621      -0.03615120      -0.08494624
Ni       7.35972001       2.83202256       2.12519038        3       1.00000000       0.01606710       0.01023225       0.05438850
Ni       9.79347812       2.82860252       2.12276958        3       1.00000000      -0.03251404      -0.00131576       0.05509443
Ni       3.69746394       4.94606739       2.08739729        3       1.00000000       0.04717159      -0.01856274      -0.00205302
Ni       6.13762230       4.95541037       2.12281757        3       1.00000000       0.03471692      -0.00202997       0.05256696
Ni       8.57335361       4.95084092       2.11959127        3       1.00000000      -0.02110799      -0.00981909       0.05304498
Ni      11.00314000       4.94542093       2.09063081        3       1.00000000      -0.07140666      -0.01975101       0.04099014
Ni       4.90748864       7.07756282       2.11890948        3       1.00000000       0.00614150       0.00473250       0.06793958
Ni       7.35164805       7.06780290       2.12554032        3       1.00000000       0.00195935      -0.01746106       0.07036331
Ni       9.80022551       7.07092705       2.12264397        3       1.00000000      -0.00956354      -0.01425773       0.08907928
Ni      12.25496285       7.09834455       2.08576758        3       1.00000000       0.00074027       0.05493593       0.01931727
Ni      -0.00250870       1.41408043       4.16234644        2       1.00000000      -0.01260893      -0.00046104      -0.04220083
Ni       2.44051720       1.40137917       4.15320208        2       1.00000000      -0.01946448      -0.02265498      -0.06953516
Ni       4.91161107       1.40947955       4.15158856        2       1.00000000       0.01775168      -0.00137246      -0.08128715
Ni       7.35432252       1.42210477       4.16092952        2       1.00000000       0.01204525       0.01289370      -0.04763893
Ni       1.19888538       3.49589097       4.16725800        2       1.00000000      -0.01701974      -0.00110563      -0.00782745
Ni       3.70125418       3.50616063       4.15146783        2       1.00000000       0.01514742       0.00398159      -0.08277786
Ni       6.13608380       3.53443018       4.16481952        2       1.00000000       0.02674015       0.00067272      -0.02058619
Ni       8.57148794       3.53380892       4.16154273        2       1.00000000      -0.01195333      -0.00099188      -0.02764625
Pt       2.44991453       5.66146806       4.15434442        2       0.00000000      -0.00111471       0.00896812       0.11665895
Ni       4.95075518       5.66086009       4.16207893        2       1.00000000       0.01324362       0.01052201      -0.03822378
Ni       7.35323537       5.65888481       4.16178001        2       1.00000000       0.00465351      -0.00428364      -0.02229008
Ni       9.75471242       5.65915708       4.16264479        2       1.00000000      -0.01681416      -0.00405325      -0.01891453
Ni       3.70075435       7.82388359       4.16158145        2       1.00000000       0.00790213       0.01234977      -0.04166182
Ni       6.13266080       7.78411893       4.16143561        2       1.00000000       0.00424287      -0.00238575      -0.03140256
Ni       8.57180700       7.78312671       4.16515790        2       1.00000000      -0.01268232      -0.00499149      -0.00340638
Ni      11.00598534       7.82314689       4.16092860        2       1.00000000      -0.00109369       0.00669464      -0.03782359
Ni       0.00383160       0.00400340       6.18534265        1       1.00000000       0.02254574       0.02130943      -0.04086799
Ni       2.44799335      -0.00268962       6.17865813        1       1.00000000      -0.00249865       0.01019703      -0.03105111
Ni       4.89850739       0.00249217       6.17991127        1       1.00000000      -0.01926535       0.03278726      -0.03787979
Ni       7.35263025       0.00600098       6.18266201        1       1.00000000       0.00164887       0.00898752      -0.07596595
Ni       1.22004075       2.11395026       6.18002193        1       1.00000000      -0.00019772      -0.03713745      -0.03698340
Ni       3.67750385       2.11394318       6.08140477        1       1.00000000       0.00573684      -0.03317868      -0.34752772
Ni       6.12996652       2.12108714       6.17588901        1       1.00000000      -0.00462048      -0.00498486      -0.04943252
Ni       8.57757308       2.12187928       6.18059071        1       1.00000000      -0.00151459       0.00049944      -0.04644114
Ni       2.44982849       4.21716805       6.21390807        1       1.00000000       0.01218050      -0.04702324      -0.00749293
Ni       4.90785183       4.24378402       6.17726997        1       1.00000000      -0.00163972      -0.00834323      -0.07443682
Ni       7.35250747       4.24409275       6.18081204        1       1.00000000       0.00080781      -0.00126248      -0.03497605
Ni       9.79791836       4.24107916       6.18219900        1       1.00000000      -0.00599611      -0.00359148      -0.05856964
Ni       3.70148452       6.38149121       6.21782084        1       1.00000000       0.03727594       0.02133735      -0.00874900
Ni       6.13370169       6.36867693       6.18360608        1       1.00000000       0.02906592       0.01081172      -0.03546175
Ni       8.57130286       6.36867716       6.18353926        1       1.00000000      -0.02847204       0.01076321      -0.02431548
Ni      11.00393495       6.38163775       6.21701596        1       1.00000000      -0.03386441       0.02213370      -0.00254166
