64
Lattice="10.223474411667045 -0.021884485997664946 0.04784779355218481 5.092784685010781 8.746366269973803 -0.019292574700387817 0.0 0.0 21.52261272593308" Properties=species:S:1:pos:R:3:tags:I:1:initial_magmoms:R:1:forces:R:3 unique_id=06c34412970547cab1cd3405eb3a345b energy=-370.7582769400981 stress="0.0021194804213104865 2.1539245073539006e-05 0.00040828914979864587 2.1539245073539006e-05 0.0012306831243793746 3.89493885207016e-06 0.00040828914979864587 3.89493885207016e-06 -0.005305764410323722" pbc="T T T"
Ni       0.04779032      -0.05484243       0.14299315        1       1.00000000       0.06654480      -0.02532854      -0.28011736
Ni       2.50168171      -0.04462113       0.18815492        2       1.00000000       0.04547606      -0.02059686      -0.30660171
Pt       5.10910399      -0.05425301       0.11971801        1       0.00000000      -0.06077703       0.35524890      -1.35650673
Ni       7.69907490      -0.07413077       0.18630073        2       1.00000000      -0.06076412       0.00059313      -0.49546628
Ni       1.27851180       2.19245200       0.06393229        1       1.00000000      -0.01512569       0.03958748       0.26561145
Pt       3.75694884       2.24319791       0.14618205        1       0.00000000       0.15801059      -0.07036731      -0.72819762
Pt       6.40703910       2.25904040       0.07020616        1       0.00000000      -0.02248174      -0.06321112      -0.14336413
Pt       9.02114951       2.22065234       0.10427595        1       0.00000000      -0.02935668       0.14064365      -0.69432897
Ni       2.54801012       4.41455997       0.00000000        0       1.00000000       0.09269599       0.02468377       0.22015863
Ni       5.10789507       4.45322484       0.06124914        1       1.00000000      -0.04581329       0.05316238       0.30295885
Ni       7.66020544       4.43731619       0.07836145        1       1.00000000       0.05672193       0.00327653       0.26445458
Ni      10.24160075       4.39672690       0.05231779        1       1.00000000      -0.02436175       0.04496999       0.25987997
Ni       3.84050997       6.54269545       0.04178918        0       1.00000000       0.05387811       0.01157101       0.32682632
Ni       6.37017520       6.54144415       0.06361052        1       1.00000000      -0.01366056       0.05298450       0.34711887
Ni       8.88082803       6.49001917       0.12814725        1       1.00000000      -0.13285504      -0.00318284      -0.34659950
Ni      11.53820684       6.49958654       0.03616918        0       1.00000000       0.04720486       0.07181337       0.11988667
Ni       1.29456886       0.70706295       2.12513899        3       1.00000000       0.01173568       0.03084880       0.16966807
Ni       3.81677059       0.73017518       2.17132439        4       1.00000000      -0.00231076      -0.03557086       0.24234335
Ni       6.39591696       0.75971104       2.20261932        4       1.00000000      -0.01850448       0.15251759       0.22048534
Pt       8.97310555       0.70144274       2.20622752        4       0.00000000      -0.01351598      -0.11340581       0.17187516
Ni       2.54986790       2.91129799       2.17273918        4       1.00000000       0.02717594      -0.03004106       0.12676460
Ni       5.10170030       2.93807910       2.19845737        4       1.00000000      -0.00331915       0.03612442       0.10382328
Ni       7.67707388       2.94386381       2.20108226        4       1.00000000      -0.01501098       0.01411779       0.10973863
Ni      10.24675589       2.89004826       2.23320781        4       1.00000000       0.04372599      -0.02273332       0.18160216
Ni       3.88250480       5.08650840       2.13411704        3       1.00000000       0.07759128      -0.04425101       0.06301085
Ni       6.38472160       5.10279950       2.12153669        3       1.00000000       0.00076672      -0.05601938       0.03678305
Ni       8.88614553       5.02817794       2.16361379        4       1.00000000      -0.03600790      -0.14685777       0.09673595
Pt      11.54956468       5.00419209       2.18178668        4       0.00000000       0.05574319      -0.04105102       0.04998644
Ni       5.14833554       7.21452475       2.09485347        3       1.00000000      -0.00076207      -0.08038349       0.08071102
Ni       7.58210170       7.23512903       2.11270878        3       1.00000000      -0.07815778      -0.08104134       0.14914637
Pt      10.18202151       7.18729482       2.13005331        3       0.00000000       0.02176402      -0.23819158       0.09805286
Ni      12.82216966       7.20807904       2.10942216        3       1.00000000       0.10649203      -0.06538740       0.07336691
Ni       0.01789784       1.48442928       4.24153007        5       1.00000000      -0.01397008      -0.02392713      -0.15876093
Pt       2.50549080       1.50419731       4.20244414        5       0.00000000      -0.09861247      -0.06941956      -0.00153504
Ni       5.13528318       1.46376824       4.23078471        5       1.00000000      -0.03327541      -0.02749348      -0.34302967
Ni       7.68076462       1.45503121       4.27795771        6       1.00000000      -0.06567740      -0.06040766      -0.24345194
Ni       1.26176945       3.66034362       4.30123181        6       1.00000000      -0.03552908      -0.01207911      -0.02537521
Ni       3.83477422       3.70265950       4.22640082        5       1.00000000      -0.01415612       0.06000039      -0.21380607
Pt       6.39790126       3.64116714       4.26452654        6       0.00000000      -0.00821880      -0.02602689      -0.03458597
Ni       8.98084225       3.65721179       4.23768781        5       1.00000000      -0.02163006       0.07157356      -0.20455103
Ni       2.58284279       5.73726814       4.29058593        6       1.00000000       0.02225595      -0.04269614      -0.07968732
Ni       5.13087045       5.77937321       4.27060370        6       1.00000000       0.08255764      -0.04741051      -0.16269637
Ni       7.64438217       5.77329749       4.25088660        6       1.00000000      -0.04014459      -0.00737633      -0.18281211
Ni      10.23640485       5.71457097       4.31352103        6       1.00000000      -0.03747459       0.02275547      -0.09277449
Pt       3.90980571       7.91147446       4.22233251        5       0.00000000       0.05893402      -0.00203916      -0.03012664
Ni       6.37999467       7.93576108       4.21190476        5       1.00000000      -0.02504245      -0.06756767      -0.18370945
Pt       8.86299478       7.94240554       4.21815692        5       0.00000000      -0.10994487       0.00714301      -0.11285184
Pt      11.54289799       7.94403890       4.22278876        5       0.00000000       0.02474031      -0.12244619      -0.19427464
Pt       0.03913290      -0.07068554       6.46687393        9       0.00000000      -0.13742170       0.16335455       0.26093201
Pt       2.54997583      -0.03836382       6.50811362        9       0.00000000       0.18654581       0.03105285       0.37926289
Pt       5.14396138      -0.01617611       6.36000792        8       0.00000000      -0.19827046       0.21278500       1.34416738
Pt       7.69459448      -0.08743355       6.52261273        9       0.00000000       0.16184284       0.22158404       0.40568940
Ni       1.29215093       2.23393880       6.39386322        8       1.00000000      -0.02342834       0.04270796      -0.08278443
Pt       3.85773372       2.31070032       6.33912685        7       0.00000000       0.10900639      -0.04911301       0.67432842
Ni       6.41737351       2.19999920       6.33517236        7       1.00000000      -0.02003811      -0.04785378       0.26833086
Pt       8.97530632       2.25650904       6.30672849        7       0.00000000      -0.02160151      -0.16735608       0.75589339
Ni       2.54158745       4.40422008       6.36513581        8       1.00000000       0.04461182      -0.04079291      -0.25098390
Ni       5.13926673       4.41202887       6.40393931        8       1.00000000      -0.04882697      -0.01150724      -0.25762966
Ni       7.61672776       4.33491051       6.41921542        8       1.00000000      -0.05620709      -0.01889289      -0.18359663
Ni      10.31749877       4.33079331       6.40262709        8       1.00000000       0.01346258       0.00016372      -0.18190274
Ni       3.84293358       6.43619675       6.39451195        8       1.00000000      -0.00092881      -0.01676159      -0.25937893
Ni       6.36641969       6.45790103       6.38967033        8       1.00000000       0.02266437       0.07117861      -0.28638247
Pt       8.95438066       6.37522102       6.45520655        9       0.00000000       0.01523515       0.01778552       0.09985239
Ni      11.54296121       6.43693786       6.41712159        8       1.00000000      -0.02420018       0.04456001      -0.15157637
