64
Lattice="9.978703525917298 0.017868638062022216 -0.05807661474840812 5.0048264574513865 8.669495321248187 -0.00088935160758202 -0.04741935737393191 0.026539090007864825 8.532607314548079" Properties=species:S:1:pos:R:3:tags:I:1:initial_magmoms:R:1:forces:R:3 unique_id=4cba929cc2f240cf98ed31eaae75bf05 stress="-5.3487617432818046e-05 -7.0390896851865165e-06 2.5499492282580793e-05 -7.0390896851865165e-06 -5.8932971743731744e-05 -1.838479471995846e-05 2.5499492282580793e-05 -1.838479471995846e-05 -3.0992764230262926e-05" energy=-384.13282172488096 pbc="T T T"
Ni       0.00478274      -0.00215445       0.11070535        4       1.00000000       0.05466085       0.00962866       0.06608466
Ni       2.46880644       0.00039670       0.10087811        4       1.00000000      -0.10433992       0.00244670       0.11844729
Ni       4.93263019       0.07592537       0.02745161        4       1.00000000      -0.09971371       0.06824899      -0.01016532
Ni       7.53526867       0.06856703       0.02715069        4       1.00000000       0.04895412       0.02981968       0.00731982
Ni       1.24127552       2.09353040       0.20489598        4       1.00000000      -0.02812042      -0.05470014       0.33477640
Ni       3.76735138       2.12102298       0.18505351        4       1.00000000      -0.03508192      -0.00217647       0.28211412
Ni       6.23964423       2.21297631       0.04590530        4       1.00000000      -0.05504946       0.10538537      -0.00370116
Ni       8.69326135       2.12849528       0.06230634        4       1.00000000      -0.02308102       0.00410008       0.07304392
Pt       2.59144041       4.28375866       0.04614005        4       0.00000000       0.10936715      -0.05693056      -0.11115764
Ni       5.05691750       4.35306435       0.19861139        4       1.00000000      -0.02766825       0.05548067       0.33759891
Ni       7.41160111       4.35285950       0.07774088        4       1.00000000      -0.06484057       0.08381604       0.05613023
Pt       9.87974288       4.29958426      -0.00267138        4       0.00000000      -0.18505001      -0.05531631      -0.09698881
Ni       3.82522081       6.54797980       0.10650129        4       1.00000000       0.05563646       0.04099049       0.11170420
Ni       6.23829048       6.52344476       0.09128643        4       1.00000000      -0.07378209       0.07479104       0.03669524
Ni       8.64478240       6.54512970       0.04158234        4       1.00000000      -0.17799951       0.03486366       0.04493105
Pt      11.25038274       6.61743538      -0.04971398        4       0.00000000      -0.04302227       0.19108373      -0.15889035
Ni       1.22870595       0.70621704       2.16792899        3       1.00000000      -0.03788771      -0.08147043       0.15372891
Ni       3.66324728       0.76107858       2.15103457        3       1.00000000      -0.06533059      -0.07786128       0.16078434
Pt       6.26270256       0.79265780       2.12485092        3       0.00000000       0.03849416       0.04399340      -0.08948685
Ni       8.77823673       0.73601116       2.10859920        3       1.00000000       0.03046243      -0.06238106       0.06442115
Ni       2.50400115       2.82872644       2.19375948        3       1.00000000      -0.06560827       0.02767050       0.07076382
Ni       4.95121429       2.93295596       2.12209590        3       1.00000000      -0.04561918       0.00384370       0.10296369
Ni       7.51895984       2.94069092       2.08360411        3       1.00000000       0.04831231      -0.00174857      -0.02789524
Ni       9.94745560       2.84032054       2.14607188        3       1.00000000       0.02555197      -0.00052832       0.03946244
Ni       3.81010319       5.08986200       2.19107056        3       1.00000000      -0.00466388       0.05491567       0.06455981
Ni       6.23933669       5.10989714       2.11958460        3       1.00000000       0.02211419       0.14760947       0.14370541
Ni       8.64923887       5.05414844       2.15554957        3       1.00000000      -0.01862731       0.01659206       0.04943892
Pt      11.25208011       5.03269746       2.20671319        3       0.00000000       0.02316962      -0.04891543      -0.16154407
Ni       5.00387991       7.24386239       2.15463298        3       1.00000000      -0.01118748       0.05652168       0.09457316
Ni       7.40218599       7.24484924       2.14147402        3       1.00000000      -0.07055126       0.04014016       0.12083221
Pt       9.88442642       7.25961739       2.17636510        3       0.00000000      -0.07825054       0.00348717      -0.12412450
Ni      12.55954535       7.26071293       2.13601702        3       1.00000000       0.02364139       0.00683376       0.00214065
Ni      -0.04470623       1.42651853       4.20319944        2       1.00000000       0.06177710      -0.06892496       0.03124290
Ni       2.45717996       1.42814325       4.17808301        2       1.00000000      -0.05786999      -0.02837890       0.11174093
Ni       4.96216996       1.42152153       4.20436074        2       1.00000000      -0.06066031      -0.01005760       0.01797157
Ni       7.51273525       1.43490925       4.23635264        2       1.00000000       0.09182324      -0.01145195      -0.06921864
Ni       1.22186802       3.59677989       4.25815846        2       1.00000000      -0.00958441      -0.16314071      -0.04838252
Ni       3.68635324       3.63615865       4.18328541        2       1.00000000       0.03770925      -0.03102257       0.02152760
Pt       6.25298560       3.62778214       4.16490722        2       0.00000000      -0.02537958       0.03264063       0.13484333
Ni       8.75375474       3.62567126       4.19499275        2       1.00000000       0.04766896      -0.07281201      -0.11901856
Ni       2.51701715       5.82606386       4.27271443        2       1.00000000       0.10359919       0.06808986      -0.16243135
Ni       4.96700619       5.86342455       4.20016765        2       1.00000000       0.08579383       0.04132882       0.03237668
Ni       7.48548836       5.84155912       4.22634089        2       1.00000000      -0.02313228       0.05042765      -0.03268864
Ni       9.93579262       5.80602968       4.24908845        2       1.00000000      -0.05436832       0.00218180      -0.12990250
Ni       3.74098235       7.96358262       4.24774647        2       1.00000000       0.04414623       0.03002972      -0.11036932
Ni       6.22077736       7.96582589       4.22832469        2       1.00000000      -0.04166676       0.03245391      -0.04359570
Ni       8.69103585       7.97574294       4.26601429        2       1.00000000      -0.07794836       0.03467731       0.01162389
Ni      11.24039705       7.97764003       4.24031762        2       1.00000000       0.07910106       0.01424956      -0.13821321
Ni      -0.06144086      -0.02947022       6.29087176        1       1.00000000      -0.03607608      -0.06214688      -0.09626029
Ni       2.46267402      -0.05295893       6.28255980        1       1.00000000       0.02689148      -0.04738032      -0.02394644
Ni       4.99862272      -0.04173597       6.25343115        1       1.00000000       0.11815205      -0.14258841      -0.10233519
Ni       7.45892023       0.02233452       6.24401096        1       1.00000000       0.02800333      -0.06756867      -0.08873657
Pt       1.14642020       2.16159707       6.32111807        1       0.00000000      -0.07628302      -0.10462336       0.17681615
Pt       3.75412427       2.11844584       6.30618783        1       0.00000000       0.10603659      -0.11715252       0.07023067
Ni       6.27411434       2.14143208       6.28259459        1       1.00000000       0.04009790      -0.08775104      -0.12709328
Ni       8.65326551       2.18422804       6.24936196        1       1.00000000      -0.00735688      -0.03427038      -0.08429090
Ni       2.43655717       4.40153047       6.18809030        1       1.00000000      -0.01660917       0.00220027      -0.32284211
Pt       4.98609726       4.43698712       6.35397304        1       0.00000000       0.08415413       0.07240664       0.14470966
Ni       7.52816441       4.37306573       6.28596287        1       1.00000000       0.12814104       0.02650190      -0.05799778
Ni       9.93465065       4.40532125       6.14694578        1       1.00000000       0.05391717       0.00934538      -0.24575525
Ni       3.69722313       6.57666197       6.28704486        1       1.00000000      -0.02856497       0.05108394      -0.06847342
Ni       6.25005646       6.57323973       6.27969414        1       1.00000000       0.08065471       0.01668360      -0.09757575
Ni       8.71818474       6.52879848       6.25556254        1       1.00000000       0.08329092      -0.03090990      -0.04096934
Ni      11.21077035       6.53850260       6.12919512        1       1.00000000       0.04965269      -0.06435489      -0.29525305
