64
Lattice="9.825530876528271 0.0007193042960701074 -0.004632883981183374 4.913388374057582 8.51032108736805 -0.0027969791669674436 0.0 0.0 21.184176069220737" Properties=species:S:1:pos:R:3:tags:I:1:initial_magmoms:R:1:forces:R:3 unique_id=6c9178f66a6c43cbb8da55c8a85806ef energy=-356.1565465837807 stress="0.003323300066907977 -1.5350724386361906e-05 -0.00010023877258619411 -1.5350724386361906e-05 0.0032983121835437994 -6.1043039870892005e-06 -0.00010023877258619411 -6.1043039870892005e-06 -0.0025323562319996638" pbc="T T T"
Ni      -0.00061656      -0.00010261       0.16991573        2       1.00000000      -0.00368539       0.00589665      -0.58132837
Ni       2.45846188      -0.00839434       0.05811178        1       1.00000000      -0.02605546      -0.02734296       0.06712526
Ni       4.91127453       0.00046978       0.05015076        1       1.00000000      -0.00454403      -0.00770414       0.07931747
Ni       7.36539502       0.01134781       0.05351515        1       1.00000000       0.02272035       0.02614936       0.03691140
Ni       1.20316688       2.07927692       0.05809446        1       1.00000000       0.01039255       0.04814896      -0.01117777
Ni       3.70871440       2.07868398       0.05949633        1       1.00000000      -0.01004884       0.08942710       0.00761539
Ni       6.14725303       2.12104379       0.05390318        1       1.00000000      -0.00614108       0.01077781       0.03797054
Ni       8.58595829       2.12510949       0.05119903        1       1.00000000      -0.00868603      -0.03852621       0.02262322
Pt       2.45108791       4.25613466       0.00000000        0       0.00000000       0.04072677      -0.00040557      -0.28526736
Ni       4.96279466       4.25622286       0.17221697        2       1.00000000      -0.07290423      -0.01878338      -0.60356999
Ni       7.36870940       4.25722028       0.05336340        1       1.00000000      -0.02671214       0.00680141       0.06222780
Ni       9.76904742       4.25696079       0.04872282        0       1.00000000       0.07068747      -0.00239967       0.00384049
Ni       3.70960511       6.42842374       0.06243236        1       1.00000000      -0.02497056      -0.05660190      -0.01358767
Ni       6.15066704       6.38589924       0.06089342        1       1.00000000      -0.00116111       0.01328867       0.05969881
Ni       8.58898762       6.38792742       0.04834327        0       1.00000000      -0.01549720       0.01437018       0.06863824
Ni      11.02475893       6.43113972       0.04850697        0       1.00000000       0.02849540      -0.05915315       0.00582419
Ni       1.23615054       0.70776399       2.08871354        3       1.00000000       0.01647972       0.02188267       0.06520076
Ni       3.68668500       0.69985074       2.07733545        3       1.00000000       0.01289874       0.00681156       0.03899709
Ni       6.13820670       0.70772508       2.07046978        3       1.00000000      -0.01217186      -0.00607103       0.01881617
Ni       8.58577934       0.71668443       2.07961045        3       1.00000000      -0.02108807       0.01187259       0.04651283
Ni       2.45421522       2.81048067       2.09512340        3       1.00000000       0.02197254       0.02880206       0.01369127
Ni       4.91761644       2.82020352       2.08358866        3       1.00000000      -0.00741470      -0.02584661       0.05178458
Ni       7.36959684       2.83719665       2.06358426        3       1.00000000      -0.02590177       0.01448074       0.04211955
Ni       9.81867563       2.83590105       2.05933976        3       1.00000000      -0.00061862      -0.01645003      -0.00179320
Ni       3.69528219       4.97979096       2.10748771        3       1.00000000      -0.02935477      -0.00535290       0.04868025
Ni       6.16030307       4.97201928       2.09026251        3       1.00000000       0.00980629      -0.00281941       0.08838128
Ni       8.59244472       4.96836058       2.07202202        3       1.00000000       0.01729825      -0.00059063       0.01445471
Ni      11.02802941       4.97866977       2.09377156        3       1.00000000       0.00208956      -0.00044411      -0.03818346
Ni       4.91853500       7.08746330       2.08349847        3       1.00000000      -0.01203564      -0.04487602       0.10476342
Ni       7.37293667       7.09263015       2.06703701        3       1.00000000      -0.00011694       0.01032160       0.06495800
Ni       9.81893952       7.09653851       2.07201700        3       1.00000000       0.01026179      -0.00424224       0.01766503
Ni      12.27735789       7.09958070       2.06088386        3       1.00000000       0.00144819       0.00835381       0.01912053
Ni      -0.00352521       1.44085709       4.07724197        4       1.00000000      -0.00937490      -0.02520900      -0.01445285
Ni       2.45429701       1.41284372       4.10783727        4       1.00000000       0.00875646       0.01587698      -0.02951708
Ni       4.91252456       1.40988936       4.10652646        4       1.00000000       0.01105828      -0.00325091       0.00327413
Ni       7.36765682       1.41652350       4.09923067        4       1.00000000      -0.00643207       0.00060650      -0.01499888
Ni       1.20900707       3.54386629       4.08189112        4       1.00000000      -0.01045041      -0.01675199      -0.10612420
Ni       3.67103562       3.52781594       4.06936431        4       1.00000000       0.03204966      -0.00427198      -0.04474844
Ni       6.16340994       3.53278314       4.07593432        4       1.00000000      -0.00573355       0.00415431       0.02096826
Ni       8.59923456       3.55079182       4.09293544        4       1.00000000      -0.01807295      -0.00963421      -0.05574434
Ni       2.44285186       5.68475241       4.08769378        4       1.00000000       0.01731400       0.02926016      -0.06837999
Ni       4.91434552       5.69391520       4.08453615        4       1.00000000      -0.01241358      -0.01960074       0.01203391
Ni       7.38024549       5.67301169       4.10149317        4       1.00000000      -0.00985585       0.00512103       0.01087607
Ni       9.82137691       5.67521347       4.10617656        4       1.00000000       0.01324059      -0.00866979      -0.06760012
Ni       3.66147576       7.79810451       4.07365521        4       1.00000000       0.00916237       0.00364793      -0.01454348
Ni       6.16349820       7.79556213       4.07519576        4       1.00000000      -0.00413022      -0.00881662       0.00845790
Ni       8.60279464       7.79814805       4.10067345        4       1.00000000      -0.00900023       0.00809188      -0.00959518
Ni      11.04444461       7.80122961       4.09683730        4       1.00000000       0.01081153       0.01987247      -0.03266178
Pt      -0.00182780       0.01013493       6.18417607        7       0.00000000      -0.00161516       0.04090520       0.22331777
Ni       2.50627202      -0.00410312       6.12743947        6       1.00000000      -0.06688214       0.00061105      -0.01487336
Ni       4.91120020      -0.01012347       6.12847650        6       1.00000000       0.00156376      -0.02793438      -0.06142041
Ni       7.31572467      -0.00434379       6.12338644        6       1.00000000       0.07397980       0.01494326      -0.02981153
Ni       1.24315201       2.17233254       6.11955721        6       1.00000000      -0.04213172      -0.05488669      -0.01917126
Ni       3.66553435       2.08201401       6.12067502        6       1.00000000       0.06344835       0.07860587       0.01708536
Ni       6.16072998       2.08223852       6.12404015        6       1.00000000      -0.06149607       0.05899509      -0.00290880
Ni       8.57721571       2.17276736       6.12064231        6       1.00000000       0.05224183      -0.07759922      -0.03383144
Ni       2.40562127       4.25740732       6.00519810        5       1.00000000       0.07437681       0.02230553       0.58718785
Pt       4.91575617       4.24395687       6.17878875        7       0.00000000      -0.03936923      -0.03253293       0.28578753
Ni       7.42156412       4.25806544       6.12379588        6       1.00000000      -0.07126337       0.02247782      -0.03195717
Ni       9.82319179       4.26311929       6.11821763        6       1.00000000       0.02728434       0.02815007      -0.07560207
Ni       3.62125862       6.38514601       6.11567272        6       1.00000000       0.02924567      -0.03009879       0.05397263
Ni       6.20217743       6.38508603       6.12132233        6       1.00000000      -0.02760558      -0.01287548       0.05569757
Ni       8.61397846       6.38260467       6.12592549        6       1.00000000       0.04525836       0.00261858      -0.05017632
Ni      11.03458777       6.38554696       6.11803320        6       1.00000000      -0.03013398      -0.02388619      -0.05257074
