64
Lattice="10.283067746881729 -0.028980465493645347 0.0460092985701197 5.116436054109872 8.86445358956975 0.02245100759890845 0.0 0.0 21.559466486381403" Properties=species:S:1:pos:R:3:tags:I:1:initial_magmoms:R:1:forces:R:3 unique_id=ee9eb782e07e4f1180517bcf921d7a3c stress="0.005848940064919791 -1.13229275006726e-05 0.0002087574370735078 -1.13229275006726e-05 0.005518821486966117 8.786016584314551e-05 0.0002087574370735078 8.786016584314551e-05 -0.001233437835887712" energy=-375.12989546577194 pbc="T T T"
Ni       0.02132581      -0.00908571       0.08733401        1       1.00000000       0.11337604      -0.00028475      -0.13891074
Ni       2.54150141       0.00402869       0.13470069        1       1.00000000      -0.05041986       0.05753021      -0.06140200
Pt       5.13732639      -0.05421725       0.08434525        1       0.00000000      -0.05835529       0.17690698      -0.88489263
Ni       7.73843973      -0.07996346       0.14006867        1       1.00000000      -0.06218459      -0.10317131      -0.26043157
Ni       1.28931243       2.22440003       0.03166698        0       1.00000000       0.00680154       0.05426398       0.37901946
Pt       3.77387773       2.26601956       0.12510526        1       0.00000000       0.04084589      -0.01988410      -0.42141454
Pt       6.42275029       2.21534417       0.06214330        1       0.00000000       0.06018334      -0.00331684      -0.07772841
Pt       9.08824758       2.20091100       0.09236813        1       0.00000000      -0.00330387       0.14561766      -0.62295727
Ni       2.55462962       4.46605921       0.00000000        0       1.00000000       0.05982209       0.04111006       0.35657431
Ni       5.09111730       4.45891215       0.04586802        0       1.00000000      -0.11056571       0.13511888       0.35674184
Pt       7.74090488       4.47381231       0.06054431        1       0.00000000       0.06689027       0.06148186       0.00424543
Ni      10.32775023       4.43448053       0.04320917        0       1.00000000       0.10411174       0.03152365       0.31218032
Ni       3.80315093       6.63581191       0.04100833        0       1.00000000      -0.01267162      -0.04360337       0.46327082
Pt       6.36424293       6.68855687       0.12919434        1       0.00000000      -0.06296004       0.07141894      -0.30402667
Ni       8.99589426       6.62167409       0.11637839        1       1.00000000      -0.09117200      -0.01735104      -0.20678177
Ni      11.59047248       6.59183870       0.04499403        0       1.00000000       0.06748503       0.03247921       0.27934862
Ni       1.31184120       0.73454924       2.12291215        2       1.00000000       0.06404292       0.00596006       0.07138325
Ni       3.83961040       0.74988305       2.16716417        3       1.00000000       0.03671579      -0.00585181       0.22182257
Ni       6.42327723       0.74906995       2.18350269        3       1.00000000      -0.08470881       0.08261437       0.24311787
Pt       9.05246025       0.67516579       2.17780560        3       0.00000000       0.10964881       0.02681514      -0.07201574
Ni       2.55920141       2.96125307       2.17244605        3       1.00000000       0.02329333       0.06011422       0.05510093
Ni       5.12521727       2.97424351       2.19812793        3       1.00000000      -0.06116757       0.08163241       0.16241362
Ni       7.71329081       2.97965138       2.19473192        3       1.00000000       0.03593705       0.11954593       0.16946260
Ni      10.30794626       2.93391433       2.22525684        3       1.00000000       0.02226782      -0.06343992       0.26299612
Ni       3.88314571       5.16296627       2.15284493        3       1.00000000       0.12041526      -0.05748071       0.06181680
Ni       6.40237543       5.16805303       2.19775779        3       1.00000000      -0.05986234       0.03330704       0.11626505
Ni       8.96821158       5.12308191       2.21675832        3       1.00000000      -0.09419883      -0.22650863       0.27538405
Pt      11.60773976       5.08212105       2.19363527        3       0.00000000       0.14326372      -0.11686561       0.08304423
Ni       5.13949479       7.34823690       2.18012630        3       1.00000000       0.06027629      -0.20185385       0.16384893
Ni       7.65927084       7.37353488       2.18290359        3       1.00000000      -0.11997644      -0.04475908       0.21261403
Pt      10.24940599       7.29914728       2.17401088        3       0.00000000      -0.02167093      -0.17769646      -0.12301483
Ni      12.87690503       7.32094788       2.14509705        2       1.00000000       0.10827243      -0.20001135       0.01393286
Ni       0.03921025       1.52262830       4.26797835        5       1.00000000      -0.04981040       0.06040022      -0.20273758
Pt       2.52612936       1.54793608       4.20666627        4       0.00000000      -0.05053370       0.03066885       0.03484094
Ni       5.14077986       1.49931871       4.26959654        5       1.00000000      -0.13965752       0.00441175      -0.43325946
Pt       7.71690590       1.50767845       4.27656636        5       0.00000000      -0.03471812      -0.04003519      -0.08390329
Ni       1.27435739       3.72634400       4.32736810        5       1.00000000      -0.04575884       0.02032478      -0.01402477
Ni       3.84371703       3.75727590       4.27403947        5       1.00000000      -0.11585826       0.12829234      -0.29960009
Pt       6.38974373       3.75551128       4.29505875        5       0.00000000      -0.07325529       0.01576195      -0.06375093
Ni       9.05008967       3.73733308       4.29309847        5       1.00000000       0.04683420       0.09889416      -0.30296972
Ni       2.58519134       5.83458710       4.33624047        5       1.00000000       0.01601831      -0.19078206      -0.06401071
Ni       5.11690420       5.87256644       4.27255232        5       1.00000000      -0.04339562      -0.09691436      -0.32285920
Ni       7.71799848       5.86850659       4.27482630        5       1.00000000       0.00906434      -0.01390577      -0.41290864
Ni      10.29434555       5.80692510       4.34766891        5       1.00000000       0.01425966      -0.09836783      -0.11051743
Pt       3.92321216       8.02696377       4.27390235        5       0.00000000       0.06094138      -0.10511420       0.10637021
Ni       6.41728831       8.09553533       4.26074612        5       1.00000000      -0.06109900      -0.05078820      -0.36358645
Pt       8.91334991       8.08029291       4.26803367        5       0.00000000      -0.08791385       0.03884559      -0.05501074
Pt      11.58625173       8.01824996       4.28851463        5       0.00000000      -0.05276783      -0.20169716      -0.02104001
Pt       0.02520385       0.01755503       6.47548688        7       0.00000000       0.02490299       0.13074194       0.23861540
Pt       2.57700402       0.02007153       6.51254535        7       0.00000000       0.02469300      -0.06811469       0.30673907
Pt       5.17620667       0.01259926       6.41525348        6       0.00000000      -0.02493271       0.21187050       0.91074440
Pt       7.73846959      -0.08010358       6.55946649        8       0.00000000       0.04109068       0.10132202       0.38653589
Ni       1.30454700       2.29037539       6.44319935        6       1.00000000       0.02138595       0.17723320      -0.23969524
Pt       3.87168876       2.34401962       6.39745403        6       0.00000000       0.04364509       0.04680948       0.38751218
Ni       6.44704989       2.25421934       6.41101729        6       1.00000000      -0.04121873       0.04416503       0.16978382
Pt       9.05232748       2.31378195       6.40897063        6       0.00000000       0.10591650      -0.00347576       0.64992794
Ni       2.55586528       4.47955091       6.43506805        6       1.00000000      -0.02681231      -0.01657420      -0.44028371
Ni       5.12768721       4.43677616       6.46179333        7       1.00000000      -0.10832301       0.06139623      -0.27564245
Ni       7.70675692       4.39629063       6.40014358        6       1.00000000      -0.03452305      -0.01111747       0.00551261
Ni      10.36488550       4.41278102       6.46284289        7       1.00000000       0.18136885      -0.00946776      -0.33414100
Ni       3.82450614       6.56595885       6.46189272        7       1.00000000      -0.04449285      -0.15386801      -0.31765327
Pt       6.38064964       6.54776331       6.37602660        6       0.00000000       0.10738511       0.07751766       0.26639024
Pt       9.05839202       6.50471679       6.49754824        7       0.00000000      -0.03904994      -0.08185916       0.05906894
Ni      11.60837710       6.54823034       6.50066919        7       1.00000000       0.02618353      -0.04193564      -0.25545450
