64
Lattice="10.27527987139351 0.0025939940942544186 0.010711289257301401 5.139886400479648 8.925993399312068 0.053555011856001714 0.0 0.0 21.509397062532415" Properties=species:S:1:pos:R:3:tags:I:1:initial_magmoms:R:1:forces:R:3 unique_id=a6ba91fa4c66451b8ee5c55131e1ba3b energy=-375.9310662606027 stress="0.00541117635252329 0.00024157126357113917 6.593000714712873e-05 0.00024157126357113917 0.005726588163362726 0.00023946944195355155 6.593000714712873e-05 0.00023946944195355155 -0.0012164515871401563" pbc="T T T"
Ni       0.04038756       0.03215195       0.06813455        1       1.00000000       0.12955462      -0.00708357      -0.07995432
Ni       2.53118005       0.01766434       0.10467445        1       1.00000000      -0.08520165       0.08810892      -0.03392539
Pt       5.08199544      -0.01563612       0.04020073        0       0.00000000      -0.02728749       0.24349632      -0.87660844
Pt       7.75508336      -0.07343465       0.07604119        1       0.00000000      -0.12924048      -0.07642678      -0.82843145
Ni       1.24666019       2.24570792       0.01852005        0       1.00000000      -0.09036398       0.06085565       0.49608165
Pt       3.76483592       2.30093950       0.10916734        1       0.00000000      -0.04909710       0.05450164      -0.42410290
Pt       6.43966914       2.27327961       0.04041973        0       0.00000000      -0.02456919      -0.05727728      -0.08527003
Ni       9.04993787       2.25790822       0.07964567        1       1.00000000       0.05165241       0.14490208      -0.09428867
Ni       2.55957559       4.49702064       0.00000000        0       1.00000000       0.05000557      -0.01395958       0.30800533
Ni       5.10812500       4.49930599       0.11356203        1       1.00000000      -0.04620896       0.09457861       0.09763595
Pt       7.79116742       4.49711511       0.03627468        0       0.00000000       0.03218990       0.05950494       0.05907066
Ni      10.31482166       4.46009825       0.01155058        0       1.00000000       0.08506826      -0.09928186       0.35390447
Ni       3.83885513       6.65218735       0.04802359        0       1.00000000      -0.00336640      -0.13253120       0.42221039
Pt       6.39660161       6.74248359       0.12695300        1       0.00000000      -0.04002579       0.05638565      -0.29539112
Ni       9.00925432       6.68176746       0.02757580        0       1.00000000      -0.06065171      -0.01121223       0.12523926
Ni      11.57299999       6.64358552       0.01552938        0       1.00000000       0.03717604       0.03378900       0.17831944
Ni       1.31322886       0.75660902       2.10325889        2       1.00000000       0.15480691       0.01500218       0.05028166
Ni       3.82628540       0.77893141       2.14555042        2       1.00000000       0.01982428       0.01520562       0.19871595
Ni       6.40233448       0.79938432       2.15811635        3       1.00000000      -0.10642730       0.14603101       0.25551141
Pt       9.08396633       0.80102871       2.13287318        2       0.00000000       0.15269350       0.07800195      -0.05939734
Ni       2.55938769       2.99251451       2.16198438        3       1.00000000       0.01673876       0.05201281       0.08213690
Ni       5.12245610       3.01515041       2.17841072        3       1.00000000      -0.09117194       0.05740224       0.20708163
Ni       7.72413465       3.02873976       2.15380871        3       1.00000000       0.04523410       0.13272271       0.16214543
Ni      10.29054024       2.99307533       2.14645501        2       1.00000000       0.10604208       0.07761138       0.14104479
Ni       3.89358209       5.21359146       2.15927245        3       1.00000000       0.14968462      -0.04402999       0.14084233
Ni       6.41125894       5.22749427       2.17575655        3       1.00000000      -0.03581896       0.07712016       0.10706443
Ni       8.96542335       5.19019554       2.18065541        3       1.00000000      -0.09737228      -0.18416586       0.24183065
Pt      11.61598184       5.14663470       2.12718713        2       0.00000000       0.09109328      -0.11025122       0.09349172
Ni       5.15289684       7.41853338       2.18517229        3       1.00000000       0.04115932      -0.14821772       0.15464396
Ni       7.66783971       7.45012811       2.18304462        3       1.00000000      -0.13928218      -0.02324491       0.17837586
Pt      10.24238280       7.38892450       2.14859505        2       0.00000000      -0.07100046      -0.17216113      -0.29562644
Ni      12.89164148       7.39348240       2.17384978        3       1.00000000       0.19465492      -0.21798476       0.10244005
Ni       0.02305132       1.55515922       4.27868427        5       1.00000000      -0.05265820       0.07642693      -0.11185395
Pt       2.50998578       1.57559151       4.19030576        4       0.00000000      -0.03423631      -0.04197371       0.01419570
Ni       5.12937567       1.54676508       4.25590219        5       1.00000000      -0.09675342       0.04851552      -0.39995305
Pt       7.72490429       1.57157739       4.25210825        5       0.00000000      -0.01362637      -0.05389012      -0.08109836
Ni       1.29272994       3.73410643       4.33439859        5       1.00000000       0.01631706      -0.03196984      -0.01570759
Ni       3.83136683       3.79393412       4.25723441        5       1.00000000      -0.07708265       0.09472152      -0.31904706
Pt       6.40413929       3.80886926       4.24213229        4       0.00000000      -0.09965151       0.01855944      -0.05349355
Ni       9.01509092       3.75097229       4.28458304        5       1.00000000       0.00445290      -0.08009891      -0.30135931
Ni       2.60797733       5.90660060       4.34131849        5       1.00000000       0.09866297      -0.19615712      -0.07949248
Ni       5.13507371       5.95514721       4.26661900        5       1.00000000       0.01193241      -0.11779091      -0.38309843
Ni       7.69792777       5.95423679       4.28407185        5       1.00000000      -0.07033773      -0.04814512      -0.37661358
Pt      10.27094398       5.86383087       4.39459500        6       0.00000000       0.04406325      -0.03323998       0.00648672
Pt       3.94492529       8.10572193       4.27868103        5       0.00000000       0.10841330      -0.10532634       0.04003794
Ni       6.42183010       8.18562629       4.26993797        5       1.00000000      -0.05966385      -0.01008820      -0.41209788
Pt       8.90631981       8.17930103       4.27957310        5       0.00000000      -0.12732019      -0.00156107      -0.05783282
Pt      11.59079006       8.15966850       4.25767566        5       0.00000000       0.04245991      -0.11893537      -0.19152506
Pt       0.01170837       0.05379335       6.46825608        8       0.00000000       0.05102447       0.13255627       0.16133117
Pt       2.56562049       0.03324506       6.50939706        8       0.00000000      -0.00846632      -0.03140748       0.28411943
Pt       5.14872316      -0.00564286       6.39029373        7       0.00000000      -0.01403005       0.15751071       0.90993824
Pt       7.71284977      -0.02006167       6.43596302        7       0.00000000       0.04264500       0.04591586       0.94361554
Ni       1.27893392       2.33150293       6.45126600        8       1.00000000      -0.03108555       0.18023281      -0.27732361
Pt       3.81832752       2.32099301       6.39268589        7       0.00000000       0.11472768       0.04999044       0.42333467
Ni       6.43705618       2.28876952       6.39827455        7       1.00000000      -0.07499984       0.00007578       0.09975192
Pt       9.02977968       2.38186738       6.48714967        8       0.00000000       0.03104255       0.01225130       0.10333918
Ni       2.51861958       4.52992692       6.45132227        8       1.00000000      -0.08940200       0.01068479      -0.41671607
Pt       5.10359858       4.51673827       6.49025347        8       0.00000000      -0.08578901       0.02780519      -0.01860293
Ni       7.74502269       4.50946424       6.39480790        7       1.00000000       0.05996900       0.10240516      -0.09651228
Ni      10.31382458       4.51197946       6.49397603        8       1.00000000       0.07303004      -0.06858501      -0.16278979
Ni       3.81674887       6.67761582       6.47995894        8       1.00000000      -0.10508862      -0.07114481      -0.25383736
Pt       6.46083054       6.68292597       6.38574149        7       0.00000000       0.00351299       0.01984961       0.28134145
Ni       9.02619568       6.65976200       6.49947483        8       1.00000000      -0.00038666      -0.13448991      -0.13591035
Ni      11.57467094       6.65414781       6.50465895        8       1.00000000       0.07783205      -0.02210218      -0.20570425
