64
Lattice="10.357148485506391 -0.03745548543230187 0.0032861678478291498 5.146136840857745 8.898145995990355 -0.07753433047040671 0.0 0.0 21.61852113426361" Properties=species:S:1:pos:R:3:tags:I:1:initial_magmoms:R:1:forces:R:3 unique_id=e7385d736aeb47fcb84216e0a799d9bb energy=-376.41980181602054 stress="0.005678064031839376 -0.00021301404455853043 0.00011937583723599877 -0.00021301404455853043 0.005822238118315526 -0.0005781485968641254 0.00011937583723599877 -0.0005781485968641254 -0.001821475433207367" pbc="T T T"
Ni       0.00980280       0.01025804       0.16408651        2       1.00000000       0.14933050      -0.06334488      -0.18399295
Ni       2.58187666      -0.01312710       0.19770007        2       1.00000000      -0.06129823       0.00062398      -0.09052648
Ni       5.16344493      -0.04736968       0.15153151        2       1.00000000      -0.06329829       0.14354580      -0.38718943
Ni       7.78106981      -0.08215499       0.16942993        2       1.00000000      -0.01748343      -0.13947669      -0.23278016
Ni       1.25594883       2.22232378       0.07786725        1       1.00000000      -0.08447892      -0.00728386       0.49155985
Pt       3.80217033       2.21626087       0.08835371        1       0.00000000       0.03427456      -0.01679653       0.03127808
Pt       6.48092809       2.19286706       0.10783372        1       0.00000000      -0.01692737       0.06407157      -0.69373475
Ni       9.09656561       2.18872029       0.12689605        1       1.00000000       0.05525459       0.12291113      -0.03585134
Ni       2.57035856       4.45604750       0.02559247        0       1.00000000       0.08597604       0.00025430       0.26007945
Ni       5.12650395       4.45142445       0.13592590        1       1.00000000      -0.06385218       0.05135165       0.09556487
Pt       7.83103011       4.44350880       0.06238231        1       0.00000000       0.03765511       0.01986729      -0.00785431
Ni      10.36815452       4.40505057       0.02651762        0       1.00000000       0.04765791      -0.08507301       0.28256969
Ni       3.82874157       6.66143458       0.12391610        1       1.00000000      -0.02904405      -0.05110215       0.10544043
Pt       6.42119994       6.69557285       0.12426665        1       0.00000000      -0.08950028       0.02696225      -0.48948496
Ni       9.05319685       6.65730483       0.00000000        0       1.00000000      -0.12547422      -0.01673363       0.07902631
Ni      11.64522513       6.62986500       0.00224793        0       1.00000000       0.15265086      -0.02284684       0.22054881
Ni       1.31377893       0.73740400       2.15998948        5       1.00000000       0.06055372       0.10728889      -0.01957273
Ni       3.84727110       0.73048048       2.18660000        5       1.00000000      -0.03927645       0.04398161       0.15477745
Pt       6.45513253       0.74040795       2.25127089        6       0.00000000      -0.03708038       0.20199927       0.12421636
Pt       9.12206112       0.72904976       2.17473857        5       0.00000000       0.04707190       0.09536135       0.17333434
Ni       2.58425971       2.93494961       2.17999360        5       1.00000000       0.02393566       0.00126722       0.10464994
Ni       5.12477940       2.97984726       2.20315474        5       1.00000000      -0.19442161       0.09348045       0.12360529
Ni       7.79747125       2.96577685       2.21054038        5       1.00000000       0.14203258       0.08339991       0.15710248
Ni      10.35032469       2.91523681       2.16478685        5       1.00000000       0.12314995       0.03820533       0.02810770
Ni       3.89677335       5.16607359       2.16541547        5       1.00000000       0.09564460      -0.06824084       0.12179893
Ni       6.43875727       5.16303348       2.18591128        5       1.00000000      -0.07122001       0.04376000       0.14695300
Ni       9.02002895       5.12152249       2.18854603        5       1.00000000      -0.06394400      -0.15546806       0.19308771
Pt      11.68378452       5.09446833       2.09793308        4       0.00000000       0.10172509      -0.11556917      -0.01299110
Ni       5.13105466       7.35780592       2.13459360        4       1.00000000      -0.12191709      -0.17585647       0.09097170
Ni       7.73001831       7.37916184       2.13199467        4       1.00000000       0.00878880      -0.10116869       0.01922520
Pt      10.27955479       7.33663168       2.04196225        3       0.00000000       0.02489157      -0.14250985      -0.06241803
Ni      12.95329391       7.32957725       2.09981770        4       1.00000000       0.03606286      -0.08191046       0.05022337
Ni      -0.01628064       1.48054898       4.33980130        8       1.00000000      -0.01736394      -0.03655901      -0.19961579
Pt       2.61384172       1.49493886       4.30136351        8       0.00000000      -0.02993344      -0.01689082      -0.13086383
Ni       5.15854551       1.46946999       4.34148967        8       1.00000000      -0.04355807       0.13968800      -0.21262325
Ni       7.79987390       1.45913768       4.34021126        8       1.00000000       0.17009894       0.03037261      -0.23028979
Pt       1.27887252       3.66590430       4.37424798        9       0.00000000      -0.05044087      -0.02680318      -0.07404250
Ni       3.88098244       3.69510849       4.30779534        8       1.00000000       0.06078056       0.12340924      -0.30647031
Pt       6.47482345       3.69105657       4.22397305        7       0.00000000      -0.06355271       0.01373257      -0.08809217
Ni       9.03219718       3.62910567       4.31180846        8       1.00000000      -0.05169112      -0.13212479      -0.34739301
Ni       2.59455800       5.85493464       4.30950203        8       1.00000000       0.10078766      -0.13682437      -0.20871693
Ni       5.13445288       5.84744012       4.26232887        8       1.00000000      -0.09353152      -0.06902562      -0.40058108
Ni       7.75375186       5.83525720       4.28213933        8       1.00000000      -0.05308271      -0.02730462      -0.35619030
Pt      10.28868687       5.80965311       4.38174806        9       0.00000000      -0.04578924      -0.04444675      -0.09753859
Pt       3.86101511       8.09103801       4.22363542        7       0.00000000       0.02050161      -0.03156650      -0.01098862
Pt       6.42747006       8.08111350       4.17244207        7       0.00000000      -0.08832984       0.01066448      -0.17901101
Pt       9.01079180       8.09223750       4.24981734        7       0.00000000      -0.07285728      -0.00790173      -0.05681701
Pt      11.64317729       8.08347859       4.28151705        8       0.00000000       0.05255674      -0.05421334       0.02258735
Pt       0.02725018       0.00018824       6.58460566       12       0.00000000       0.07616199       0.06600802       0.23005269
Pt       2.60293102      -0.00111720       6.61852113       12       0.00000000       0.01620931       0.03901688       0.30550974
Pt       5.16174386      -0.11929578       6.60030557       12       0.00000000      -0.04658391       0.11673409       0.50829926
Pt       7.76495795      -0.08603181       6.60836811       12       0.00000000       0.03581701       0.25883348       0.46338040
Ni       1.31153350       2.23717735       6.52034153       11       1.00000000       0.04332310       0.05040198      -0.14984177
Ni       3.84565530       2.19714319       6.44318573       10       1.00000000      -0.01010774      -0.04741183       0.08793775
Pt       6.46183745       2.17795265       6.41784297       10       0.00000000       0.03930546      -0.08825912       0.66326243
Pt       9.11862891       2.26496382       6.49717842       11       0.00000000      -0.00793705       0.06824002       0.02557868
Ni       2.52587146       4.37317880       6.49618664       11       1.00000000      -0.04153799      -0.01096060      -0.20356070
Pt       5.09506920       4.34984077       6.49738923       11       0.00000000      -0.09327372       0.06962773       0.02076251
Ni       7.80314990       4.40705580       6.41226545       10       1.00000000       0.08376617       0.09006947      -0.07057492
Ni      10.36227672       4.40505953       6.51497908       11       1.00000000       0.03227837       0.06244740      -0.13758287
Pt       3.78412287       6.55967449       6.49600151       11       0.00000000       0.11063709      -0.12653617       0.03435181
Pt       6.51588623       6.55675884       6.40828369       10       0.00000000      -0.11264143      -0.06867097       0.40277858
Ni       9.06346189       6.54982418       6.49027058       11       1.00000000      -0.08643033      -0.02809857      -0.06161321
Ni      11.60209211       6.53536570       6.49373480       11       1.00000000       0.01897907      -0.08059884      -0.07981827
