64
Lattice="10.168318494699875 0.0023620305189348016 0.030549837761604158 5.086204825783904 8.735419409594055 -0.04932882814533869 0.024943838080246757 -0.06090899681632627 8.694542650995986" Properties=species:S:1:pos:R:3:tags:I:1:initial_magmoms:R:1:forces:R:3 unique_id=7ac2615beebb4802a1060df4a557db32 stress="-0.0073169800649402 2.0894787158589948e-05 5.303292082494885e-06 2.0894787158589948e-05 -0.007244090756322048 -2.4175619983876617e-05 5.303292082494885e-06 -2.4175619983876617e-05 -0.006295002999929827" energy=-390.5823961839433 pbc="T T T"
Ni       0.03858720      -0.04783619       0.19780547        4       1.00000000       0.08002224      -0.04721870       0.16780336
Ni       2.49759113       0.00878361       0.18869640        4       1.00000000      -0.00167103       0.12168330       0.09397263
Pt       5.12377962      -0.01676034       0.18608926        4       0.00000000       0.02329904       0.03667153      -0.13844353
Ni       7.65255368      -0.04839346       0.22374046        4       1.00000000       0.05479209      -0.06717229       0.18898706
Ni       1.26829560       2.20082627       0.11625960        4       1.00000000      -0.01477254       0.06725753       0.10144854
Pt       3.78144949       2.26121183       0.17713460        4       0.00000000      -0.00250823       0.03548244      -0.14688646
Ni       6.36688723       2.23590288       0.13403704        4       1.00000000      -0.00202068       0.08029186       0.14993954
Pt       8.90760157       2.23836082       0.14147541        4       0.00000000       0.02305505       0.05110996      -0.18793005
Ni       2.52461758       4.40924909       0.08554835        4       1.00000000       0.02499854       0.02887307       0.04209982
Ni       5.10764667       4.41207739       0.09634139        4       1.00000000      -0.02118289       0.02280661       0.04356471
Ni       7.59740378       4.40083141       0.10991387        4       1.00000000      -0.02891544       0.03823978       0.08927742
Ni      10.21021114       4.39799515       0.11361128        4       1.00000000       0.09946521       0.02672811       0.06509575
Ni       3.82236081       6.52108593       0.07388546        4       1.00000000       0.03386505      -0.07216484       0.00501573
Ni       6.31559558       6.51455019       0.04349878        4       1.00000000      -0.06715821      -0.06120806      -0.09427287
Ni       8.89885757       6.47574910       0.15597496        4       1.00000000       0.05355750      -0.12766495       0.07610599
Ni      11.49686123       6.49136304       0.06247929        4       1.00000000       0.11903997      -0.05193103      -0.08545256
Ni       1.28981894       0.77961196       2.20504600        3       1.00000000       0.03138987       0.08961117       0.09486143
Ni       3.79939652       0.78526159       2.22879724        3       1.00000000      -0.03726446       0.06271192       0.02378997
Ni       6.36332106       0.76865241       2.25440332        3       1.00000000      -0.00333253       0.02268774       0.09314458
Pt       8.91539561       0.72786703       2.24167503        3       0.00000000       0.02793027       0.00528278       0.15975187
Ni       2.51758930       2.93084062       2.23992016        3       1.00000000       0.00731320       0.02995394       0.02073910
Ni       5.08638229       2.91967211       2.19862061        3       1.00000000      -0.06583861       0.03276144       0.00230314
Ni       7.60729213       2.93574829       2.20376515        3       1.00000000      -0.01926496       0.02235028       0.03060210
Ni      10.22517419       2.94138993       2.24079792        3       1.00000000       0.06502042       0.01397180       0.01065917
Ni       3.81186084       5.06362585       2.15955175        3       1.00000000      -0.00832815      -0.08265374      -0.00441491
Ni       6.31306666       5.04269902       2.12315689        3       1.00000000      -0.07403377      -0.03907228       0.02826658
Ni       8.91853628       5.00013940       2.15772249        3       1.00000000       0.01866307      -0.09528868       0.02746655
Ni      11.49386277       5.01592300       2.19504543        3       1.00000000       0.07589983      -0.08446781       0.06813211
Ni       5.06258391       7.19683489       2.11337969        3       1.00000000      -0.07069453      -0.12847232       0.02355815
Pt       7.54665660       7.25828187       2.08897882        3       0.00000000      -0.04240092      -0.02719050       0.03362362
Pt      10.27320679       7.16742508       2.19007674        3       0.00000000       0.03525514      -0.13863474       0.08007279
Ni      12.75167419       7.19276745       2.14250127        3       1.00000000       0.08686027      -0.13773156       0.02067046
Ni       0.07057704       1.46991221       4.27404524        2       1.00000000       0.05384167       0.00210641      -0.03630072
Ni       2.50828137       1.49780177       4.25111331        2       1.00000000      -0.00513116       0.06697288      -0.06177499
Ni       5.09726534       1.44119969       4.24474169        2       1.00000000      -0.08577911       0.01258533      -0.13998986
Ni       7.61338134       1.41837059       4.30732085        2       1.00000000      -0.04910203      -0.08043046       0.00110145
Ni       1.29141923       3.61572069       4.28983161        2       1.00000000       0.00373145      -0.00756290      -0.05734145
Ni       3.76738756       3.66129656       4.23213356        2       1.00000000      -0.06315754       0.04806401      -0.17335840
Pt       6.31535570       3.55556976       4.30248687        2       0.00000000      -0.03777138      -0.04054039      -0.00643451
Ni       8.97270513       3.61657302       4.24403386        2       1.00000000       0.02929964      -0.00647974      -0.19741735
Ni       2.53399145       5.72985950       4.27682958        2       1.00000000      -0.04084866      -0.05192482      -0.15520266
Ni       5.05298925       5.75373552       4.28522160        2       1.00000000      -0.02708410      -0.09878052      -0.13943896
Pt       7.61869599       5.75671303       4.27701587        2       0.00000000       0.02420348      -0.00887874      -0.01932588
Ni      10.25245137       5.72860805       4.31018923        2       1.00000000       0.00812490      -0.05601993      -0.03953397
Pt       3.82629892       7.89023618       4.23084770        2       0.00000000       0.00069896      -0.03069325       0.05722161
Ni       6.34153507       8.00174840       4.24070530        2       1.00000000      -0.04352237       0.04338225      -0.05893739
Pt       8.90433263       8.03742549       4.22453584        2       0.00000000      -0.07747437      -0.03895735      -0.07537602
Ni      11.48632215       7.94647726       4.25764296        2       1.00000000       0.03565759      -0.07445008      -0.06436083
Pt       0.02554437      -0.08201451       6.48756974        1       0.00000000      -0.08355438       0.03707691       0.16413667
Pt       2.53043855      -0.02467698       6.48819422        1       0.00000000       0.07017498       0.07722124       0.12011446
Pt       5.13660863      -0.01001597       6.37488327        1       0.00000000      -0.03291414       0.11056652       0.09390063
Pt       7.63789285      -0.08509464       6.51429113        1       0.00000000       0.05067584       0.01948929       0.22156904
Ni       1.28700255       2.21659462       6.38588145        1       1.00000000       0.01570727       0.05969836      -0.08157212
Pt       3.81882030       2.28824599       6.31596648        1       0.00000000      -0.00183597       0.09447564      -0.06110430
Ni       6.37449967       2.20024846       6.44154777        1       1.00000000      -0.01623573       0.04450826       0.04544898
Pt       8.92183702       2.25217193       6.31418272        1       0.00000000      -0.00977666       0.05176775      -0.05262210
Ni       2.52962293       4.38537067       6.38002918        1       1.00000000      -0.02196234       0.07413164      -0.08482338
Ni       5.10199744       4.39385115       6.42541351        1       1.00000000      -0.05030401       0.11081408      -0.00071911
Ni       7.57768332       4.32599400       6.45090622        1       1.00000000      -0.13041380       0.02537451       0.03162878
Ni      10.27073551       4.32613797       6.40653739        1       1.00000000       0.12095032       0.01032313      -0.08714009
Ni       3.82303050       6.41632835       6.40155451        1       1.00000000      -0.04134559      -0.05745917      -0.03849664
Ni       6.33011161       6.45081559       6.41068118        1       1.00000000      -0.03182986       0.02485149      -0.14786336
Pt       8.94848216       6.38977087       6.49147593        1       0.00000000       0.02610222      -0.02243503       0.12112650
Ni      11.49861620       6.43990385       6.39327268        1       1.00000000       0.00983507       0.03359892      -0.16066583
