64
Lattice="10.298192684730983 -0.008135292195695651 0.0864201773020598 5.142050972656867 8.894953303806025 0.04217626344386011 0.0 0.0 21.509524404230064" Properties=species:S:1:pos:R:3:tags:I:1:initial_magmoms:R:1:forces:R:3 unique_id=852a50c9556544d3bfc3f4e36ec9eff1 energy=-378.34215279827043 stress="0.0007709527737796221 -4.575899845096242e-05 0.0006429881323192632 -4.575899845096242e-05 0.0006063488933414213 3.579039250273953e-05 0.0006429881323192632 3.579039250273953e-05 -0.006019309877263079" pbc="T T T"
Pt      -0.02654236      -0.04122886       0.05389349        1       0.00000000       0.04114971       0.20910188      -0.72322096
Ni       2.60568217      -0.07439358       0.04391970        0       1.00000000      -0.01481631      -0.00659103       0.37437700
Ni       5.13007173      -0.03961032       0.05408319        1       1.00000000      -0.04687267      -0.00474870       0.31283988
Ni       7.74828973      -0.00455314       0.04835731        0       1.00000000       0.05988022       0.02955058       0.05230769
Pt       1.29276769       2.18473433       0.05176845        1       0.00000000      -0.02761188      -0.22575382      -0.93914381
Pt       3.89541661       2.13233074       0.03876790        0       0.00000000       0.14148220      -0.15439566      -0.68191226
Pt       6.51847257       2.12558329       0.00551489        0       0.00000000       0.02421268       0.04910155      -0.03787712
Ni       9.00940655       2.19643722       0.13631717        1       1.00000000       0.03284685      -0.05428083      -0.15455649
Ni       2.58333753       4.47322519       0.09325868        1       1.00000000       0.04595673       0.06266113      -0.17358721
Pt       5.10552011       4.54053424       0.00000000        0       0.00000000       0.09406394      -0.08175889       0.01851889
Pt       7.71849429       4.50610000       0.07431809        1       0.00000000      -0.03459907       0.01535506       0.03024353
Pt      10.28528637       4.47252125       0.12944248        1       0.00000000      -0.12736454       0.12439089      -0.88630604
Ni       3.85265809       6.67698857       0.01556472        0       1.00000000      -0.06768748       0.00203892       0.11574875
Ni       6.47756916       6.70210015       0.04376725        0       1.00000000       0.07957126       0.02907167       0.22988174
Ni       8.98174817       6.73182211       0.16129222        2       1.00000000       0.05904074       0.01565438       0.15220567
Pt      11.58584999       6.75588559       0.09384123        1       0.00000000      -0.20892829       0.01771210      -0.69185876
Ni       1.35374628       0.68879142       2.20584896        3       1.00000000       0.18109943      -0.06216612       0.36917019
Ni       3.88442572       0.64486798       2.20476085        3       1.00000000       0.01089851      -0.13315558       0.18017503
Ni       6.43373427       0.72229327       2.23110490        3       1.00000000      -0.11190059       0.00087394       0.15445777
Ni       8.98119488       0.75673886       2.22408324        3       1.00000000      -0.12858248       0.04238476       0.23643379
Pt       2.62568704       2.90834409       2.21551675        3       0.00000000      -0.04511345       0.06205280       0.27069279
Pt       5.22913179       2.93867061       2.23975280        3       0.00000000       0.15152884       0.03063962       0.02551702
Ni       7.73660864       2.94732547       2.21962565        3       1.00000000      -0.03349296       0.00728274       0.18516618
Pt      10.19728920       2.89381154       2.29564529        4       0.00000000      -0.01724701      -0.00876079       0.21435238
Ni       3.88431720       5.19870109       2.19531760        3       1.00000000       0.03468698      -0.01274970       0.25995059
Ni       6.50890614       5.20039934       2.21235888        3       1.00000000       0.13725530      -0.03881803       0.20420164
Ni       8.97070532       5.24896323       2.27511760        4       1.00000000      -0.03250890       0.08975375       0.33307679
Pt      11.56265920       5.24387242       2.29200171        4       0.00000000      -0.02373643      -0.09668073       0.30803259
Pt       5.25893540       7.37868298       2.19326865        3       0.00000000       0.05911539      -0.15686131       0.11560511
Ni       7.78896075       7.41563442       2.21655214        3       1.00000000       0.03958427       0.00413039       0.20276354
Ni      10.23672653       7.45366059       2.25649042        4       1.00000000      -0.08184505       0.06602664       0.23117464
Pt      12.87143296       7.48796814       2.25613249        4       0.00000000       0.20059187       0.13734159       0.08876761
Ni       0.02446686       1.45609459       4.27553597        5       1.00000000      -0.01963761       0.00408577      -0.28680505
Ni       2.64030689       1.38306009       4.28011725        5       1.00000000       0.00465944      -0.20372924      -0.23579056
Ni       5.20251305       1.39860144       4.30544804        5       1.00000000      -0.01174523      -0.11454701      -0.27453583
Ni       7.72617060       1.46495648       4.32219107        5       1.00000000      -0.01995306       0.01125364      -0.30539670
Pt       1.32539896       3.71207243       4.31424325        5       0.00000000       0.05090474       0.05616796      -0.12480348
Ni       3.91499104       3.69044536       4.32139536        5       1.00000000      -0.03133740      -0.00675866      -0.31717013
Pt       6.53142952       3.66552230       4.38876954        6       0.00000000       0.00228104      -0.04524235      -0.14963680
Ni       9.01117255       3.71817680       4.35641298        6       1.00000000       0.02895770       0.04714862      -0.21404114
Ni       2.60966069       5.94262334       4.29386911        5       1.00000000       0.00798743      -0.04642562      -0.29253717
Pt       5.20474714       5.92905779       4.38570636        6       0.00000000       0.02683234       0.12310442      -0.03869889
Ni       7.78939473       5.95475444       4.32409040        5       1.00000000       0.06557232       0.08980878      -0.23933852
Ni      10.26772423       5.99583056       4.34426075        5       1.00000000      -0.18170765       0.15025736      -0.30795667
Pt       3.81965032       8.20407679       4.34756403        5       0.00000000      -0.20583434      -0.07346354      -0.08260851
Ni       6.55245506       8.16547297       4.33129513        5       1.00000000       0.19315387      -0.00241657      -0.17133001
Ni       9.04139795       8.16713537       4.33039756        5       1.00000000       0.02545532       0.01786634      -0.20260652
Ni      11.54063405       8.20710921       4.36476330        6       1.00000000      -0.16843749       0.08800069      -0.22248787
Pt       0.07136535      -0.10114122       6.38466557        8       0.00000000       0.13142060       0.12132676       0.75069593
Ni       2.63247745      -0.01691121       6.43535179        8       1.00000000      -0.04744550       0.04567063      -0.31546684
Ni       5.21843556       0.01800497       6.45229502        9       1.00000000       0.04285119      -0.00000283      -0.42510137
Ni       7.72483182       0.01868747       6.50952440        9       1.00000000      -0.10560670       0.06284659      -0.19799239
Pt       1.35397958       2.15911306       6.38126488        8       0.00000000      -0.03811929      -0.13495831       0.99850486
Pt       3.99304718       2.15863724       6.34928670        7       0.00000000      -0.00310480       0.09579548       0.50675333
Ni       6.47075763       2.18387725       6.41676551        8       1.00000000      -0.03033238      -0.13641458       0.10353362
Pt       8.94450757       2.19109085       6.50647602        9       0.00000000       0.09875200      -0.01762082      -0.05238022
Pt       2.72090399       4.49916313       6.48991209        9       0.00000000       0.04889442      -0.02659300       0.21739461
Ni       5.23962130       4.45320024       6.42825791        8       1.00000000      -0.00681634      -0.11069306       0.33331693
Ni       7.71067868       4.45909234       6.44832499        8       1.00000000       0.00984021       0.05828313       0.10476590
Pt      10.26120736       4.48040074       6.45811959        9       0.00000000      -0.14605036       0.18126409       0.97957068
Ni       3.92172631       6.66861826       6.49820201        9       1.00000000      -0.05340009      -0.00913148      -0.02364003
Ni       6.46818207       6.63473706       6.50289182        9       1.00000000      -0.01004644      -0.05948524      -0.18369385
Pt       8.95521346       6.74490986       6.50230761        9       0.00000000       0.06884202      -0.02676926      -0.25259073
Pt      11.64999567       6.76638046       6.41383738        8       0.00000000      -0.11748778      -0.09703186       0.54487525
