64
Lattice="10.551265331397017 0.002664645163191599 0.015990527938905492 5.277940316101964 9.165148028829162 0.004316863324138844 0.01305621138934569 -0.0034680293869633087 9.130811688537799" Properties=species:S:1:pos:R:3:tags:I:1:initial_magmoms:R:1:forces:R:3 unique_id=8219b5f93e3d44caacaffe58a52e6e5a stress="0.0015740468363825075 8.392912767604449e-07 5.274129769345352e-06 8.392912767604449e-07 0.0015840675440665988 5.146484865347507e-06 5.274129769345352e-06 5.146484865347507e-06 0.0012860684983255488" energy=-414.7177637337063 pbc="T T T"
Pt       0.01824659       0.03461978       0.00878163        4       0.00000000       0.01792970       0.00493179      -0.15936408
Ni       2.64309614       0.01088520       0.10753871        4       1.00000000      -0.01341337      -0.01743900       0.38682831
Pt       5.24066483       0.00151823       0.02273179        4       0.00000000      -0.03178095       0.04568681      -0.11155575
Pt       7.90757415       0.01604176       0.10089367        4       0.00000000      -0.01220373       0.03540204       0.08880197
Pt       1.32126662       2.28000778       0.02325339        4       0.00000000       0.04666296      -0.00136446      -0.16478028
Ni       3.94908101       2.28332619       0.11739642        4       1.00000000      -0.00642506       0.04051985       0.40494123
Pt       6.63914038       2.32076378       0.10732239        4       0.00000000       0.17804898       0.07114805       0.17257273
Ni       9.23997555       2.31503497       0.06572466        4       1.00000000       0.03810936       0.07194152       0.19603709
Pt       2.61350756       4.58586471       0.11863319        4       0.00000000      -0.07580624       0.05709283       0.07957834
Pt       5.30375086       4.56240858       0.12072717        4       0.00000000       0.00526252      -0.07699939       0.10572364
Ni       7.93118549       4.57519532       0.12484459        4       1.00000000       0.04871848      -0.00492099       0.24682033
Pt      10.50350828       4.56427366       0.11007934        4       0.00000000      -0.14732122      -0.15769105       0.09970654
Pt       3.93622167       6.87403104       0.09410350        4       0.00000000      -0.01257549       0.00189494       0.05489871
Pt       6.63812099       6.85663243       0.12084608        4       0.00000000       0.08837984      -0.02682287       0.12800715
Pt       9.24995132       6.85163378       0.04485928        4       0.00000000       0.07541355      -0.06197187      -0.10166466
Ni      11.85753179       6.87021753       0.12055983        4       1.00000000      -0.08892540      -0.03497485       0.25068333
Pt       1.30658692       0.79404694       2.31720019        3       0.00000000      -0.04249545       0.03029345       0.07498176
Pt       3.94803428       0.75903577       2.26880652        3       0.00000000       0.02413180      -0.09572658       0.06903636
Pt       6.61073377       0.76641236       2.38180371        3       0.00000000       0.09319255      -0.00920457       0.14170257
Pt       9.25370212       0.85161276       2.35403145        3       0.00000000       0.02289647       0.30824282       0.07275473
Pt       2.58908543       3.08941890       2.32802052        3       0.00000000      -0.11364461       0.09335140       0.14372858
Pt       5.30551400       3.09092440       2.36740407        3       0.00000000       0.13387595       0.08491222       0.22747721
Pt       7.98577725       3.16376887       2.36787434        3       0.00000000       0.10573301       0.21449814       0.25582726
Ni      10.54370931       3.09577915       2.32446185        3       1.00000000      -0.02293540       0.21252415       0.12095721
Pt       3.95549853       5.32676937       2.36068698        3       0.00000000      -0.06848871      -0.06266800       0.03631409
Ni       6.64104969       5.32990850       2.31901848        3       1.00000000       0.19236366      -0.04713187       0.11459427
Ni       9.24263209       5.32393989       2.33299047        3       1.00000000       0.11888786      -0.05027051       0.27018176
Ni      11.82884667       5.33007813       2.31426519        3       1.00000000      -0.24994060      -0.16710685       0.08436329
Pt       5.28761967       7.62111705       2.33149519        3       0.00000000      -0.03360244       0.07290509      -0.04710233
Pt       7.94427269       7.55139934       2.34763031        3       0.00000000       0.03467956      -0.25756355       0.25292185
Pt      10.56157305       7.53704842       2.35861931        3       0.00000000      -0.00572011      -0.20886973       0.18660063
Pt      13.15033867       7.60574594       2.33292529        3       0.00000000      -0.02274501       0.03625866      -0.00719351
Ni      -0.03057090       1.56069458       4.58691770        2       1.00000000      -0.22005668       0.18479511       0.09554889
Pt       2.61694490       1.56752438       4.57075151        2       0.00000000       0.00315576       0.10891278       0.04273007
Pt       5.33162406       1.53515059       4.56778747        2       0.00000000      -0.03215136      -0.04751064       0.09339316
Ni       7.95360932       1.56419657       4.56716383        2       1.00000000       0.19149229       0.30332877      -0.06614978
Pt       1.19521447       3.81926206       4.54610073        2       0.00000000      -0.48126234       0.02882804      -0.10566482
Ni       3.97203223       3.80885153       4.55755161        2       1.00000000      -0.06664161      -0.05668870       0.00979296
Ni       6.64386802       3.82414332       4.54666897        2       1.00000000       0.31756137       0.01569129      -0.09402774
Ni       9.22934531       3.82174390       4.55760600        2       1.00000000      -0.13864463       0.02183199      -0.11056109
Pt       2.57124555       6.10638754       4.51827279        2       0.00000000      -0.25313038      -0.04575227       0.02066137
Pt       5.34738202       6.03410510       4.50237934        2       0.00000000       0.22015435      -0.12569895      -0.03468715
Ni       7.95573660       6.06334116       4.54920361        2       1.00000000       0.20503820      -0.28627148      -0.17968502
Ni      10.52898608       6.08660103       4.56481268        2       1.00000000      -0.24863492      -0.22078536      -0.08438462
Pt       3.94772071       8.47790944       4.54968026        2       0.00000000      -0.04144405       0.07385207      -0.07801603
Pt       6.59953668       8.41776998       4.56497590        2       0.00000000       0.07524650       0.04630200       0.03319964
Pt       9.29637305       8.31426485       4.61941445        2       0.00000000       0.03398428      -0.11242053       0.09762608
Ni      11.87046995       8.40035348       4.58287756        2       1.00000000       0.00551368      -0.00753938       0.00344966
Ni       0.01217223       0.03848146       6.72058168        1       1.00000000       0.01510437       0.21250942      -0.46070391
Pt       2.64686430       0.00416471       6.81909710        1       0.00000000      -0.03766128       0.03168128       0.13568969
Ni       5.28169448      -0.01343470       6.73219109        1       1.00000000       0.02388005       0.02773781      -0.38443894
Pt       7.92459993       0.04420942       6.70943827        1       0.00000000      -0.00018130       0.02081067      -0.16499764
Ni       1.28058253       2.28202554       6.72594232        1       1.00000000      -0.31828299      -0.05001165      -0.42613361
Pt       3.95060977       2.26304337       6.80698937        1       0.00000000       0.03389844      -0.02434369       0.12956088
Pt       6.65956960       2.28511956       6.70782208        1       0.00000000       0.21462150       0.15977348      -0.11834783
Ni       9.27436129       2.28956640       6.77737759        1       1.00000000       0.24327894      -0.01466204      -0.37202581
Pt       2.58520501       4.54519508       6.71955349        1       0.00000000      -0.19564020      -0.04486417      -0.18270074
Pt       5.29961498       4.55642342       6.70672763        1       0.00000000       0.05752388      -0.02007304      -0.17655741
Pt       8.03062501       4.57559359       6.73820403        1       0.00000000       0.30072452      -0.00566142      -0.14379461
Ni      10.54598465       4.56705092       6.74179080        1       1.00000000      -0.02811520      -0.07418161      -0.26292842
Pt       3.96975603       6.90320385       6.72696691        1       0.00000000      -0.02211442       0.01961948      -0.30437967
Pt       6.65401451       6.87878288       6.73101851        1       0.00000000       0.12633457      -0.12015763      -0.18498867
Ni       9.25662939       6.86149729       6.73596478        1       1.00000000      -0.01890607      -0.11367428      -0.35208916
Pt      11.77644675       6.88218074       6.77676580        1       0.00000000      -0.24090772       0.01374503      -0.04877002
