64
Lattice="10.429399976112736 0.0026342069539479554 0.0003883542544973908 5.216981278197311 8.990827798227146 -0.03328521881014409 0.0003170899209858964 -0.03156467719648009 8.924996613800634" Properties=species:S:1:pos:R:3:tags:I:1:initial_magmoms:R:1:forces:R:3 unique_id=b31549610cc24138b3aac99702920c23 stress="-0.0006977264319019891 -4.056899197750952e-06 -7.274212131415205e-06 -4.056899197750952e-06 -0.0006908023888777329 7.473831722662701e-06 -7.274212131415205e-06 7.473831722662701e-06 -0.0005778543910464201" energy=-403.8195272684427 pbc="T T T"
Ni      -0.04592496      -0.00194856       0.16788616        4       1.00000000      -0.26604871      -0.05932150       0.18131797
Ni       2.62106195      -0.01705233       0.15807032        4       1.00000000       0.14796938      -0.08145225       0.21914827
Ni       5.22962208      -0.03549422       0.14681982        4       1.00000000       0.04993390      -0.01127444       0.21096824
Ni       7.84637417      -0.03961330       0.10767276        4       1.00000000       0.04857539      -0.15075200       0.17545220
Ni       1.29292940       2.25802684       0.14429876        4       1.00000000      -0.01313396       0.04384773       0.19081782
Pt       3.85299583       2.29750393       0.13019617        4       0.00000000      -0.09077029       0.08599184       0.21613389
Pt       6.52691772       2.16786583       0.13629266        4       0.00000000       0.02694866      -0.12793376       0.18485182
Ni       9.14275778       2.21195816       0.13690568        4       1.00000000      -0.04292704      -0.18209012       0.16695057
Ni       2.59313241       4.51441003       0.04781326        4       1.00000000      -0.04683469       0.10145955      -0.00861887
Ni       5.21061255       4.50109854       0.13892608        4       1.00000000       0.18192979      -0.03700470       0.22435046
Pt       7.89578792       4.51991222       0.05360529        4       0.00000000       0.11445943      -0.04659975      -0.12427712
Ni      10.45857859       4.51298672       0.03224982        4       1.00000000       0.09219383       0.08623721      -0.05119892
Ni       3.88251456       6.76221284       0.14488466        4       1.00000000      -0.07229845       0.09745389       0.20179994
Pt       6.49883147       6.78595072       0.17363433        4       0.00000000      -0.05708217       0.04062297       0.15174845
Ni       9.15342353       6.75051625       0.04807262        4       1.00000000       0.02213544       0.00176138       0.02002467
Ni      11.75129864       6.74843372       0.03307680        4       1.00000000       0.11895631       0.03921300      -0.05858684
Pt       1.27492582       0.69441962       2.14919411        3       0.00000000      -0.00928728      -0.02967327      -0.01737580
Pt       3.96885658       0.75639982       2.23893337        3       0.00000000       0.10809775       0.13617860      -0.08075848
Ni       6.55611313       0.71687423       2.25955171        3       1.00000000       0.12945744      -0.07291008       0.08108855
Ni       9.08299156       0.70106947       2.19504955        3       1.00000000      -0.12605233      -0.06282115      -0.08726295
Ni       2.61286898       3.01519388       2.23461996        3       1.00000000       0.00541839       0.05473796       0.04235534
Ni       5.21052248       3.00166797       2.25784617        3       1.00000000       0.01839554      -0.02073593       0.03514776
Pt       7.82101818       2.96891833       2.28108470        3       0.00000000      -0.02757205      -0.05500498      -0.13034840
Pt      10.41535371       3.01653343       2.16037340        3       0.00000000       0.02071389       0.11859535      -0.00954870
Pt       3.93450323       5.22769557       2.16884255        3       0.00000000       0.02263232      -0.04399633      -0.02985442
Ni       6.54381048       5.24955500       2.23128848        3       1.00000000       0.13007579       0.01389445       0.00288737
Ni       9.10244937       5.26281897       2.25606328        3       1.00000000      -0.04588527       0.02347928       0.13250331
Pt      11.75272682       5.26286775       2.17118950        3       0.00000000       0.03195140       0.05303077      -0.05625452
Ni       5.17862797       7.48666402       2.18977850        3       1.00000000      -0.13276296      -0.02594217      -0.06246437
Ni       7.83692716       7.43622342       2.21316631        3       1.00000000       0.06689070      -0.16776953       0.02565316
Pt      10.43482998       7.45852695       2.12751898        3       0.00000000       0.00052232      -0.08269799      -0.04909504
Ni      13.05698770       7.52166385       2.16664601        3       1.00000000      -0.02182156       0.02967571      -0.13047014
Pt      -0.07192112       1.53821117       4.38384689        2       0.00000000      -0.11682524       0.10468970       0.03939552
Pt       2.63943477       1.54222113       4.36622275        2       0.00000000      -0.03364128       0.08256393       0.06783459
Ni       5.24431222       1.49137033       4.39774944        2       1.00000000       0.05716094      -0.02129897      -0.12252792
Ni       7.80388968       1.47782153       4.40004056        2       1.00000000      -0.05183987      -0.04820240      -0.10135380
Pt       1.30310766       3.84765358       4.45450700        2       0.00000000      -0.01969570       0.04862403      -0.00092876
Ni       3.91409547       3.74632724       4.39338428        2       1.00000000      -0.00348956       0.00109755      -0.14979523
Pt       6.54268033       3.72284375       4.38061704        2       0.00000000      -0.06649699      -0.03642166       0.10679562
Ni       9.12081007       3.79983848       4.44066519        2       1.00000000       0.04645383       0.16544649      -0.08409840
Ni       2.58757427       5.96952329       4.43164054        2       1.00000000      -0.00685247       0.07520372      -0.09250722
Pt       5.19187782       5.93784128       4.34201585        2       0.00000000       0.00119048       0.03820962       0.07360112
Ni       7.88561490       5.92495869       4.39343563        2       1.00000000       0.06652028      -0.10539323      -0.16916594
Ni      10.40538497       5.95755939       4.45841598        2       1.00000000      -0.04041811       0.00526689      -0.06119051
Pt       3.86783312       8.22302940       4.31618685        2       0.00000000      -0.00560749       0.02082586      -0.08081514
Pt       6.53476363       8.18510084       4.32471587        2       0.00000000       0.01402259      -0.06748415       0.05677764
Pt       9.14693698       8.13478133       4.39346151        2       0.00000000      -0.06350600      -0.02936283       0.08186025
Pt      11.74879899       8.21169328       4.38068288        2       0.00000000      -0.00272756      -0.05616230      -0.05968023
Pt      -0.05281469      -0.02395340       6.70117527        1       0.00000000      -0.04041043       0.02946158       0.08107223
Pt       2.63339041      -0.04729432       6.69923968        1       0.00000000      -0.01412767       0.01246765       0.07955060
Pt       5.27247677      -0.12357761       6.68961359        1       0.00000000       0.04678637      -0.26380647       0.11503967
Ni       7.81344942      -0.02711531       6.63195259        1       1.00000000       0.04107335       0.03840729      -0.14037616
Pt       1.28860399       2.32789238       6.69319663        1       0.00000000       0.00140101       0.13236940       0.12793730
Pt       3.91614489       2.26253614       6.54959508        1       0.00000000      -0.02422314      -0.04073149      -0.33637107
Pt       6.54800526       2.19094553       6.54111874        1       0.00000000       0.03100650      -0.04489760      -0.23882806
Pt       9.10445716       2.31389816       6.64330029        1       0.00000000       0.02673496       0.17818314       0.07652842
Ni       2.56559891       4.51502519       6.60777351        1       1.00000000      -0.10034175       0.10150415      -0.13237931
Pt       5.19925602       4.48527344       6.64487388        1       0.00000000      -0.04197223       0.02679362       0.09854570
Ni       7.87918145       4.50006070       6.51679901        1       1.00000000       0.11183520       0.07698227      -0.26886171
Ni      10.41399283       4.55327333       6.59681327        1       1.00000000      -0.06619215       0.21862400      -0.16510564
Pt       3.77587342       6.71266678       6.65276321        1       0.00000000      -0.14020689       0.07304311       0.15430478
Pt       6.59718318       6.66184572       6.56348871        1       0.00000000       0.08180094       0.03212420      -0.13853618
Ni       9.16937619       6.65272821       6.58860330        1       1.00000000       0.08100930      -0.17878819      -0.17418855
Ni      11.70488963       6.67000774       6.59780632        1       1.00000000      -0.15320214      -0.23753863      -0.20961885
