64
Lattice="10.79632885338443 -0.0007015849244250499 0.0005750944732212597 5.397556836324749 9.34783831861116 0.0001876548437772759 0.0004695626710955923 -9.417945114855912e-05 9.45995808255287" Properties=species:S:1:pos:R:3:tags:I:1:initial_magmoms:R:1:forces:R:3 unique_id=85943138776f48728ae561b83c49145e stress="0.00035049022684047887 3.366665392820288e-07 -9.54995593481151e-07 3.366665392820288e-07 0.0003515569512058461 1.893662188940475e-06 -9.54995593481151e-07 1.893662188940475e-06 0.0002779649655516442" energy=-433.2086793855305 pbc="T T T"
Pt       0.01739152       0.02692114       0.08645511        4       0.00000000       0.03520164       0.07070599       0.07193792
Pt       2.68171158       0.02739439       0.08924574        4       0.00000000      -0.05030110       0.06714203       0.08106925
Pt       5.39269276       0.00229883       0.08583532        4       0.00000000      -0.02170253       0.02126852       0.09570641
Pt       8.10220075       0.00429888       0.08615081        4       0.00000000       0.03529111       0.03119262       0.06644643
Ni       1.34971994       2.33819023       0.07814758        4       1.00000000      -0.00375958      -0.00426952       0.33381571
Pt       4.01602323       2.33661901       0.08968243        4       0.00000000      -0.07528342      -0.01486582       0.06856401
Pt       6.74924681       2.33557710       0.08605061        4       0.00000000       0.01642450      -0.01049258       0.07134068
Pt       9.47698616       2.33538501       0.08887279        4       0.00000000       0.06426629      -0.02129413       0.05746637
Pt       2.68248001       4.64566747       0.09055878        4       0.00000000      -0.04218330      -0.06736153       0.09657897
Pt       5.39377305       4.67154380       0.08806346        4       0.00000000      -0.02237332      -0.01487491       0.08531218
Pt       8.10101726       4.67170585       0.08661385        4       0.00000000       0.02833215      -0.02514255       0.10264204
Pt      10.81248462       4.64524634       0.09116686        4       0.00000000       0.03845918      -0.07343215       0.09107762
Pt       4.04731787       7.01046819       0.08633852        4       0.00000000       0.00756796       0.01373874       0.09843942
Pt       6.74693587       7.01724271       0.08740018        4       0.00000000      -0.00219623       0.05215462       0.09219739
Pt       9.44740388       7.01006540       0.08747543        4       0.00000000      -0.00708644       0.00505169       0.11896964
Pt      12.14535230       7.00483380       0.08867151        4       0.00000000       0.00187956      -0.02262719       0.10028024
Pt       1.34631320       0.78067418       2.38674276        3       0.00000000      -0.02332413      -0.03726650       0.14019623
Pt       4.04742403       0.77893353       2.38951269        3       0.00000000       0.01919949       0.00102850       0.13378807
Pt       6.75817373       0.78438896       2.41274676        3       0.00000000       0.05388366       0.03465350       0.19493877
Pt       9.44150246       0.78373313       2.41249695        3       0.00000000      -0.05018470       0.02782507       0.19454059
Pt       2.68547390       3.10534471       2.36191785        3       0.00000000      -0.02928835      -0.03993939       0.07634814
Pt       5.39648246       3.11446219       2.38688707        3       0.00000000      -0.02536458      -0.00044168       0.09843082
Pt       8.10107000       3.10395071       2.41034100        3       0.00000000       0.02906529      -0.05557674       0.18277526
Pt      10.80735729       3.10430966       2.36431737        3       0.00000000       0.02128460      -0.03633198       0.05334327
Pt       4.04884231       5.45253223       2.38756027        3       0.00000000       0.00596360      -0.00118950       0.13411037
Pt       6.74873302       5.45264137       2.39154593        3       0.00000000       0.00682482      -0.01372538       0.11484098
Pt       9.44498921       5.44879765       2.39064803        3       0.00000000      -0.01000895      -0.02654606       0.14940343
Pt      12.14547672       5.44984520       2.38598104        3       0.00000000      -0.00506696       0.00324688       0.14807978
Pt       5.40794148       7.80181593       2.41261949        3       0.00000000       0.05002923       0.07362535       0.20427030
Pt       8.08495086       7.79854578       2.41081137        3       0.00000000      -0.06242969       0.05127456       0.19095324
Pt      10.79432965       7.79244656       2.39326747        3       0.00000000      -0.01547414       0.01819589       0.16153743
Pt      13.49855888       7.79191477       2.39237748        3       0.00000000       0.03000984       0.00360381       0.12342815
Pt      -0.01149033       1.53329584       4.70371848        2       0.00000000       0.01246159      -0.02133271      -0.12976016
Pt       2.67648404       1.53073186       4.70481327        2       0.00000000      -0.08872661      -0.04718263      -0.12897969
Pt       5.42615420       1.55528104       4.70932192        2       0.00000000       0.00545475      -0.00721432      -0.11405887
Ni       8.09863923       1.55688634       4.72794075        2       1.00000000       0.03394746      -0.01038752      -0.03082060
Pt       1.34436198       3.88048978       4.70527634        2       0.00000000      -0.02738796      -0.09350369      -0.12842552
Pt       4.05444996       3.89204545       4.71124145        2       0.00000000       0.01254600      -0.02516649      -0.13601128
Pt       6.76469832       3.87060026       4.70641145        2       0.00000000       0.02469567      -0.02202435      -0.13396116
Pt       9.42911674       3.86396045       4.71024027        2       0.00000000      -0.01392056      -0.08699843      -0.13781109
Pt       2.70395675       6.23958071       4.70945807        2       0.00000000       0.01748212       0.02245859      -0.11864791
Pt       5.41467984       6.26290843       4.70630169        2       0.00000000       0.03063700       0.07591294      -0.13712336
Pt       8.08049750       6.25556949       4.70568705        2       0.00000000      -0.02514597       0.02120040      -0.14121791
Pt      10.79081240       6.23346489       4.70966343        2       0.00000000      -0.02186042      -0.00494793      -0.12316860
Pt       4.06506783       8.59673988       4.70802734        2       0.00000000       0.03646038       0.05982551      -0.11424675
Ni       6.74575866       8.56908695       4.72517440        2       1.00000000      -0.02320539       0.02243918      -0.06181154
Pt       9.41670504       8.57166202       4.70867612        2       0.00000000      -0.04887671       0.03020321      -0.11928430
Pt      12.16345569       8.59878981       4.70876419        2       0.00000000       0.05089797       0.06221670      -0.12121053
Pt       0.00934862      -0.00052500       6.98548890        1       0.00000000       0.04074701       0.00275370      -0.14112995
Pt       2.68910193      -0.00203898       6.99041308        1       0.00000000      -0.02996202       0.00904713      -0.12962332
Pt       5.39797105      -0.00062587       6.99889341        1       0.00000000      -0.02534555      -0.00618938      -0.13306103
Pt       8.10024107       0.00944906       6.98165261        1       0.00000000       0.02739812       0.03053726      -0.16328562
Pt       1.34810274       2.33496183       7.07154058        1       0.00000000      -0.01479527       0.00333613       0.01413100
Pt       4.04538832       2.33324341       7.00405810        1       0.00000000      -0.01257086      -0.02265668      -0.14384194
Pt       6.75711842       2.33103446       6.98385312        1       0.00000000       0.02745986      -0.01234532      -0.15821954
Pt       9.44381788       2.32838411       6.98674189        1       0.00000000       0.01042335      -0.03457980      -0.15283889
Pt       2.69628586       4.67081190       7.01055033        1       0.00000000      -0.00724670      -0.01613703      -0.11809160
Pt       5.40069504       4.67442728       6.99958330        1       0.00000000       0.01603785       0.00285314      -0.15020864
Pt       8.09693609       4.67411296       6.99938369        1       0.00000000      -0.00009467       0.02237732      -0.13006032
Pt      10.79730523       4.66814910       7.00828508        1       0.00000000      -0.00576814      -0.03358700      -0.12536398
Pt       4.04910048       7.01414972       6.99900205        1       0.00000000      -0.01065535       0.01705524      -0.13254446
Pt       6.74792581       7.02177449       6.98548226        1       0.00000000      -0.00233472       0.03781915      -0.14095159
Pt       9.44525018       7.01152238       7.00263628        1       0.00000000       0.00657767      -0.00499486      -0.11685787
Pt      12.14646004       7.01265580       7.00326717        1       0.00000000       0.00701457       0.01988239      -0.13434207
