64
Lattice="10.31561016096524 -0.0072457962236816935 0.012076124364155923 5.151530036882268 8.857907539754189 -0.002742837067726241 0.0 0.0 21.5459676067126" Properties=species:S:1:pos:R:3:tags:I:1:initial_magmoms:R:1:forces:R:3 unique_id=1338b27f265c4b969b21bd033fd34d93 stress="0.005471808692684089 -0.00011002712556383819 1.785805845092582e-05 -0.00011002712556383819 0.0050100921659446355 6.049174080452204e-05 1.785805845092582e-05 6.049174080452204e-05 -0.0027091582243438765" energy=-375.13751000501105 pbc="T T T"
Ni       0.00406874       0.02448008       0.13953772        1       1.00000000       0.07528943       0.02662451      -0.25773588
Ni       2.57435979       0.00690264       0.17195700        2       1.00000000      -0.01574598       0.06280603      -0.18943694
Ni       5.15752064      -0.01458311       0.11432217        1       1.00000000      -0.03134446       0.15676687      -0.28750267
Ni       7.74268338      -0.04600368       0.13625425        1       1.00000000      -0.09649270      -0.14422389      -0.19273336
Ni       1.26000892       2.22068509       0.14683068        1       1.00000000      -0.06214149       0.02926050      -0.00252755
Pt       3.81230694       2.22544869       0.14416560        1       0.00000000      -0.04960471      -0.04858009      -0.53734948
Pt       6.46581147       2.15432275       0.06903068        1       0.00000000       0.03787535      -0.14706921      -0.09160227
Ni       9.06885949       2.20859698       0.11263821        1       1.00000000       0.03763540       0.14596704      -0.12380078
Ni       2.56134120       4.45272328       0.01166157        0       1.00000000      -0.07871705      -0.03902191       0.15735699
Ni       5.13837431       4.44254274       0.02751571        0       1.00000000       0.08159450      -0.06606101       0.01912459
Pt       7.77026928       4.42326529       0.00000000        0       0.00000000       0.02816509      -0.02066415      -0.23835210
Ni      10.35078238       4.41475836       0.03213016        0       1.00000000       0.03647478      -0.07575713       0.23312051
Ni       3.83243861       6.65761450       0.03230746        0       1.00000000      -0.08977327       0.15283339       0.22783750
Pt       6.40587201       6.69505745       0.06174455        1       0.00000000       0.03879470       0.08309611      -0.07783297
Ni       9.04351885       6.66591132       0.11068782        1       1.00000000      -0.09301324      -0.01378383      -0.24909330
Ni      11.62382519       6.64075306       0.02490942        0       1.00000000       0.10309665       0.02123206       0.21848234
Ni       1.29828806       0.75302529       2.12098597        3       1.00000000       0.01715757       0.06406178       0.07829118
Ni       3.86687990       0.74539072       2.16791335        4       1.00000000       0.07599526       0.01715547       0.17622559
Ni       6.44797404       0.75287600       2.21061865        4       1.00000000       0.00828278       0.13919090       0.35656684
Pt       9.02937918       0.76777572       2.14749051        3       0.00000000      -0.01014902       0.10981891       0.12085563
Ni       2.55079327       2.93805258       2.16663263        4       1.00000000      -0.05752666       0.04512712       0.08280391
Ni       5.17346049       2.92410233       2.20595420        4       1.00000000       0.02365322      -0.11189541       0.20322575
Ni       7.72765150       2.92762258       2.19732138        4       1.00000000      -0.02059190       0.01697736       0.18402131
Ni      10.33240557       2.91798844       2.17711968        4       1.00000000       0.02625774      -0.01127233       0.21876058
Pt       3.90300459       5.14895624       2.11698005        3       0.00000000       0.06459668      -0.07486380      -0.11559583
Ni       6.44264386       5.15642796       2.17238859        4       1.00000000       0.04345073      -0.04703457       0.10136150
Pt       8.98945725       5.12954762       2.24137002        4       0.00000000      -0.04667580      -0.06615198       0.12106526
Pt      11.61827392       5.11368200       2.17761223        4       0.00000000       0.01768088      -0.04842696       0.07887989
Ni       5.15427716       7.38958723       2.13876865        3       1.00000000      -0.06791266      -0.00956625       0.05052779
Ni       7.71570636       7.39628137       2.14364336        3       1.00000000       0.02333668       0.00850849       0.11220303
Pt      10.36302491       7.42922332       2.11559955        3       0.00000000       0.11371608      -0.00910951       0.03840232
Ni      12.89562361       7.38207652       2.14379781        3       1.00000000       0.06857453      -0.03943077      -0.02255291
Ni      -0.01939275       1.52847766       4.29070620        6       1.00000000      -0.04551496       0.10364590      -0.14243750
Pt       2.57662405       1.55887734       4.20279629        5       0.00000000      -0.04026423       0.04030116      -0.00801533
Ni       5.20893240       1.46891463       4.27491001        6       1.00000000       0.04411499      -0.12983528      -0.30864243
Ni       7.72198196       1.47093926       4.29977284        6       1.00000000       0.01883644      -0.09791764      -0.22208205
Ni       1.26953751       3.73658236       4.31992995        6       1.00000000      -0.05101097       0.01688863      -0.06324755
Ni       3.84721746       3.71596968       4.29570484        6       1.00000000      -0.11703313      -0.01086738      -0.24693913
Pt       6.48346619       3.62888217       4.29735413        6       0.00000000      -0.01895222      -0.05345859      -0.19293387
Ni       9.06361769       3.68935889       4.32083245        6       1.00000000       0.15670776      -0.07378325      -0.09960495
Ni       2.52801230       5.87097172       4.36379608        7       1.00000000      -0.12056967      -0.08653160      -0.03882581
Pt       5.13293604       5.84754410       4.36007936        7       0.00000000      -0.04388881      -0.02396979      -0.08568047
Ni       7.75437027       5.85879772       4.32821045        6       1.00000000      -0.00800741      -0.01959734      -0.16969743
Ni      10.35719972       5.84994957       4.35453606        7       1.00000000       0.07205587      -0.01833003      -0.04849590
Pt       3.78473631       8.10211987       4.25591535        6       0.00000000      -0.06788233      -0.02979007       0.02073824
Pt       6.44487826       8.10717140       4.22220350        5       0.00000000      -0.06625918       0.13337612      -0.13445665
Pt       9.07619093       8.08938081       4.25846805        6       0.00000000       0.01873908       0.02847622      -0.06283086
Ni      11.60799572       8.09581005       4.29968362        6       1.00000000      -0.05970529      -0.04872190      -0.18963808
Pt      -0.01290636      -0.07106750       6.52568887        9       0.00000000       0.00585004       0.12047565       0.29070758
Pt       2.58360921      -0.03816393       6.54596761        9       0.00000000       0.06999306       0.04488973       0.41223610
Pt       5.19458141      -0.02008219       6.49025010        9       0.00000000       0.00620370       0.09604871       0.32985104
Pt       7.71924211      -0.06370139       6.51312128        9       0.00000000      -0.04466228       0.04057407       0.26285268
Pt       1.28302189       2.31727381       6.48578680        9       0.00000000      -0.02371043      -0.02679117       0.09052256
Pt       3.93769162       2.31997484       6.40070090        8       0.00000000       0.07228375       0.06792823       0.49455255
Ni       6.45610835       2.23608482       6.39851524        8       1.00000000      -0.02742377      -0.04370531       0.23445689
Pt       8.97320287       2.28936603       6.44730653        8       0.00000000       0.00015303      -0.03717413       0.03432572
Ni       2.58219080       4.49529741       6.43844049        8       1.00000000       0.07182190      -0.00706352      -0.32757714
Ni       5.17203436       4.45499263       6.47704885        9       1.00000000       0.06799234       0.00290734      -0.09317941
Ni       7.70071118       4.42227649       6.36992349        8       1.00000000      -0.10680595       0.02486747       0.24605084
Ni      10.34939441       4.44497420       6.44278907        8       1.00000000       0.06344646      -0.04093216      -0.24414573
Ni       3.84295366       6.56418622       6.47245649        9       1.00000000      -0.05762086      -0.02750081      -0.15838873
Ni       6.43571823       6.56887208       6.40312129        8       1.00000000       0.12341179      -0.02770855       0.21214355
Pt       9.04399914       6.50126766       6.48312501        9       0.00000000      -0.09838002      -0.02789444       0.12783895
Ni      11.63338578       6.56243320       6.44571244        8       1.00000000       0.00414216       0.00467998      -0.31245416
