64
Lattice="10.265893825709794 -0.0016339558106798595 0.0014332314265849515 5.13153186561419 8.868616066061069 1.1323145295768177e-05 0.0 0.0 21.508270520116238" Properties=species:S:1:pos:R:3:tags:I:1:initial_magmoms:R:1:forces:R:3 unique_id=241c6462ea124705b2522413184c5308 stress="0.005652404941320773 0.00011937829978700769 0.00011544267833897014 0.00011937829978700769 0.005662215052344947 7.830860442770203e-05 0.00011544267833897014 7.830860442770203e-05 -0.0015995446485120319" energy=-374.4650997701667 pbc="T T T"
Ni       0.01068437      -0.00444153       0.11234124        1       1.00000000       0.08153122      -0.01677820      -0.11874079
Ni       2.56381034       0.00379559       0.14535637        1       1.00000000      -0.02319951       0.01902470      -0.09168088
Ni       5.12484864      -0.01601670       0.09709637        1       1.00000000      -0.04759672       0.18762927      -0.40487777
Ni       7.69437664      -0.06294413       0.12189628        1       1.00000000      -0.07219612      -0.09062650      -0.19598658
Ni       1.29279672       2.22573889       0.04001520        0       1.00000000       0.01635502       0.01788843       0.35040932
Pt       3.78170831       2.23018074       0.12481130        1       0.00000000       0.06190095       0.00440632      -0.49711896
Pt       6.40038719       2.17573817       0.04846774        0       0.00000000       0.04690586      -0.01638096      -0.06830958
Pt       9.06962745       2.21819973       0.05393754        1       0.00000000      -0.04579989       0.07981141      -0.55532638
Ni       2.56105276       4.46420466       0.00603006        0       1.00000000       0.10872967       0.01464902       0.26367748
Ni       5.09328691       4.45975872       0.12362240        1       1.00000000      -0.09015407       0.06460088       0.05478708
Pt       7.73621748       4.48597075       0.03725226        0       0.00000000      -0.00062385       0.02816587      -0.05481442
Ni      10.31312099       4.46372404       0.00777020        0       1.00000000       0.06029616       0.01933723       0.19721054
Ni       3.80828178       6.64676151       0.04616807        0       1.00000000      -0.03081856      -0.03172546       0.43269343
Pt       6.37731193       6.70675233       0.11441305        1       0.00000000      -0.05726350       0.06708958      -0.35353158
Ni       9.00831936       6.67016959       0.00724400        0       1.00000000      -0.10774856       0.02026218       0.05293458
Ni      11.57141284       6.64695976       0.00000000        0       1.00000000       0.11786655       0.03781773       0.19303487
Ni       1.29666390       0.73512685       2.11555841        3       1.00000000      -0.02139595       0.00532599       0.03056243
Ni       3.83783874       0.75150100       2.14385336        3       1.00000000       0.03296729       0.02679127       0.16612338
Ni       6.40343561       0.76871568       2.15801920        4       1.00000000      -0.05192577       0.19703067       0.21543242
Pt       8.99416013       0.72895889       2.17731153        4       0.00000000      -0.00370754       0.09239094       0.00736036
Ni       2.55957728       2.96141388       2.16018014        4       1.00000000       0.02726426       0.06771353       0.07150459
Ni       5.11805098       2.97503366       2.18028313        4       1.00000000      -0.09048967       0.02838518       0.17898537
Ni       7.69939982       2.97406530       2.18028739        4       1.00000000       0.05489929       0.01898894       0.15307792
Ni      10.28964093       2.95661548       2.18509553        4       1.00000000       0.05196352      -0.04418565       0.19081461
Ni       3.88407541       5.17155608       2.14754606        3       1.00000000       0.11289615      -0.03097255       0.12381835
Ni       6.39687727       5.17895718       2.17267989        4       1.00000000      -0.03037747       0.03160606       0.11260848
Ni       8.95699135       5.15381093       2.16461975        4       1.00000000      -0.07457196      -0.12923689       0.16144446
Pt      11.60071850       5.11878411       2.11063031        3       0.00000000       0.08834954      -0.04160371       0.04176408
Ni       5.13407463       7.35842847       2.16768667        4       1.00000000       0.02663525      -0.14303312       0.17367637
Ni       7.66399074       7.39185638       2.15891552        4       1.00000000      -0.13671334      -0.05264374       0.15957449
Pt      10.24295208       7.39409242       2.04958974        2       0.00000000      -0.01522695      -0.13277849      -0.11183188
Ni      12.86266156       7.35498155       2.09878610        3       1.00000000       0.13597515      -0.13435671       0.03150138
Ni       0.00417340       1.52069705       4.26118060        6       1.00000000      -0.04468807       0.03199184      -0.18480399
Pt       2.50105433       1.54077428       4.18529363        5       0.00000000      -0.01895224      -0.06023464       0.02725943
Ni       5.14347435       1.50594481       4.25462263        6       1.00000000      -0.07095621       0.01191908      -0.28908282
Ni       7.70102997       1.50349975       4.26561990        6       1.00000000      -0.00848749      -0.05732951      -0.25847821
Ni       1.28331851       3.68862877       4.31721941        6       1.00000000      -0.00441720      -0.01520827      -0.06151837
Ni       3.82926855       3.74710505       4.23758625        5       1.00000000      -0.02820389       0.07195532      -0.31137272
Pt       6.43124198       3.69489473       4.22484881        5       0.00000000      -0.07315354      -0.00008645       0.00451374
Ni       8.98789067       3.68506306       4.23351384        5       1.00000000      -0.00152337      -0.10072383      -0.42205118
Ni       2.59887573       5.85456225       4.31539394        6       1.00000000       0.06819646      -0.14970217      -0.06246646
Ni       5.12365697       5.88837624       4.23162560        5       1.00000000       0.05047285      -0.17443789      -0.34910295
Ni       7.68571124       5.88389520       4.24533020        5       1.00000000      -0.07115413      -0.06594847      -0.36464607
Pt      10.26037146       5.81308649       4.35052335        7       0.00000000       0.05072967       0.00300114      -0.00949881
Pt       3.91241493       8.05789243       4.25814779        6       0.00000000       0.07568917      -0.11322356       0.12921001
Ni       6.40613137       8.11047566       4.22381927        5       1.00000000      -0.03472556      -0.02826556      -0.37834563
Pt       8.91377795       8.10770904       4.23972824        5       0.00000000      -0.11109664       0.04523148       0.01336101
Pt      11.57556538       8.13819639       4.22160784        5       0.00000000       0.05204528      -0.02233000      -0.06054168
Pt       0.00904271       0.02167154       6.46970406       10       0.00000000       0.07191163       0.16392240       0.27107445
Pt       2.56069573       0.00201062       6.50827052       10       0.00000000      -0.02611640      -0.03580253       0.36537029
Pt       5.14263986      -0.04780767       6.49375258       10       0.00000000      -0.01203537       0.13178795       0.40626708
Pt       7.69911002      -0.03670106       6.50554131       10       0.00000000       0.02299146       0.18387844       0.31586150
Ni       1.26988816       2.28865727       6.42440362        9       1.00000000      -0.06587368       0.17269034      -0.23585467
Pt       3.81734158       2.26995265       6.37102800        9       0.00000000       0.10941526       0.04818867       0.50691375
Ni       6.43088527       2.23115547       6.35473553        9       1.00000000      -0.03526756      -0.04533340       0.09367906
Pt       8.99179927       2.31743308       6.31865238        8       0.00000000       0.00402443      -0.02853656       0.56899724
Ni       2.50948197       4.46936025       6.41440666        9       1.00000000      -0.06420857       0.00032504      -0.35080599
Pt       5.09737292       4.45562626       6.45010479       10       0.00000000      -0.05561265       0.00386530       0.01759390
Ni       7.73552458       4.44613253       6.35042649        9       1.00000000       0.04492475       0.10004467      -0.04341511
Ni      10.29694202       4.44580697       6.44577555        9       1.00000000       0.04590025      -0.06858171      -0.15469737
Ni       3.80069267       6.60731120       6.43481568        9       1.00000000      -0.07862177      -0.06766276      -0.21717240
Pt       6.45131857       6.60694823       6.33470527        8       0.00000000       0.02246066       0.02514649       0.36105309
Ni       9.01170567       6.57986714       6.44887895        9       1.00000000      -0.00173232      -0.12200814      -0.06795079
Ni      11.56167909       6.57940034       6.45589548       10       1.00000000       0.06333833      -0.00312593      -0.17012646
