64
Lattice="10.528161808434087 -0.014987934587992404 0.02069110283424317 5.251100972113581 9.117713216202624 -0.011247306344005947 0.01689421471978363 -0.020357941530786548 9.047694742398424" Properties=species:S:1:pos:R:3:tags:I:1:initial_magmoms:R:1:forces:R:3 unique_id=838c987a0dea46c79039e6c6b199da30 stress="0.00042796713310949697 2.0805843580598813e-06 -4.361338728888985e-06 2.0805843580598813e-06 0.0004348092907990944 6.406384372954154e-06 -4.361338728888985e-06 6.406384372954154e-06 0.0003640984561486607" energy=-411.80143768559446 pbc="T T T"
Pt      -0.04718643       0.00944851       0.16074827        4       0.00000000      -0.01078031       0.00376720       0.00523385
Ni       2.64562700       0.00302731       0.07679110        4       1.00000000      -0.04992830      -0.07056807       0.06428475
Ni       5.25867108       0.02665067       0.14027466        4       1.00000000       0.01208157       0.04094379       0.12484039
Ni       7.90303831       0.01742199       0.15869244        4       1.00000000       0.05489662       0.10554016       0.13577207
Pt       1.34827293       2.25208716       0.01637457        4       0.00000000       0.15706757      -0.02873973      -0.18590714
Ni       3.98432694       2.25913723       0.06888779        4       1.00000000       0.14687774      -0.02837023       0.06271701
Ni       6.55469502       2.29560584       0.15151324        4       1.00000000      -0.13531081       0.09081576       0.10824116
Ni       9.17642563       2.27128387       0.16252808        4       1.00000000      -0.10590513      -0.04952372       0.15264848
Pt       2.73042536       4.56506868       0.12596385        4       0.00000000       0.20988772       0.04332347      -0.02845564
Ni       5.28904437       4.51558707       0.18510480        4       1.00000000       0.13753255      -0.13795807       0.26134725
Ni       7.87221243       4.51820601       0.06942212        4       1.00000000      -0.06354595      -0.07680634       0.00312755
Ni      10.49771049       4.53313568       0.14898109        4       1.00000000       0.01526441      -0.03926704       0.16371964
Ni       3.95513292       6.83422512       0.14856418        4       1.00000000       0.12505466      -0.02259364       0.23154638
Pt       6.56300136       6.76838070       0.16319241        4       0.00000000      -0.00051550      -0.10903901       0.05520812
Pt       9.18993517       6.84611715       0.00772910        4       0.00000000       0.02674458       0.05372604      -0.23677478
Pt      11.86204718       6.87810550       0.01292483        4       0.00000000       0.09960167       0.06771360      -0.17721821
Ni       1.32613622       0.71909139       2.28031037        3       1.00000000       0.06637796      -0.02221182      -0.00926424
Pt       3.90231494       0.74157673       2.18359355        3       0.00000000      -0.05092191      -0.02763378       0.00145465
Pt       6.58431406       0.78214129       2.18024579        3       0.00000000      -0.06689626       0.00046274       0.03376834
Ni       9.21534304       0.73948252       2.28088683        3       1.00000000      -0.06589933       0.01023122       0.02198868
Pt       2.68937236       3.01618785       2.26950534        3       0.00000000      -0.04692096      -0.01134264      -0.00678304
Ni       5.27133255       3.07338463       2.23505092        3       1.00000000      -0.06629773       0.04560537      -0.01740772
Pt       7.81755081       3.06466093       2.21223691        3       0.00000000      -0.07577328       0.06756132       0.05295569
Pt      10.50274767       2.94856255       2.22485368        3       0.00000000       0.00041049      -0.04572330      -0.07516677
Ni       4.00941517       5.30525087       2.24269603        3       1.00000000       0.13739381       0.03732045       0.03144005
Ni       6.53478735       5.27941081       2.26583621        3       1.00000000      -0.11781734      -0.05114239       0.07464656
Pt       9.13093717       5.32633239       2.23073263        3       0.00000000      -0.08250920       0.04385396      -0.13040000
Pt      11.84136391       5.30517432       2.28343529        3       0.00000000      -0.00658468       0.01623307      -0.03931053
Pt       5.31369790       7.61253695       2.32642563        3       0.00000000       0.05479873       0.08722432       0.10741946
Ni       7.86113980       7.60719902       2.28361537        3       1.00000000      -0.01377538       0.03251240       0.02375641
Pt      10.48931768       7.58836790       2.28766727        3       0.00000000      -0.00557099      -0.04540598      -0.04514692
Pt      13.22891879       7.60681976       2.26031309        3       0.00000000       0.01577333       0.00025221       0.03668941
Pt       0.00518568       1.43051333       4.42972542        2       0.00000000      -0.03196110      -0.09345729      -0.13271919
Pt       2.61818204       1.46223666       4.56598386        2       0.00000000       0.00639336       0.03263575      -0.05314282
Pt       5.27716865       1.52882943       4.49073312        2       0.00000000       0.00328103      -0.01092437      -0.04997375
Pt       7.91466846       1.48503317       4.46663623        2       0.00000000      -0.01391227      -0.03350065      -0.00373743
Pt       1.28185523       3.78737253       4.50413975        2       0.00000000      -0.08465304      -0.01008069      -0.04254797
Pt       4.00993017       3.79082042       4.44897424        2       0.00000000       0.05256183      -0.00367370      -0.03796301
Ni       6.58773031       3.79352295       4.48457757        2       1.00000000      -0.01106565      -0.02730264      -0.06738165
Pt       9.16893007       3.80525102       4.51012504        2       0.00000000      -0.01942627      -0.04779983      -0.03351973
Pt       2.63432180       6.09174126       4.48355808        2       0.00000000       0.03950027      -0.01812404      -0.03859408
Pt       5.28599325       6.08409605       4.43892575        2       0.00000000      -0.00871751       0.00397210       0.09270405
Pt       7.88719334       6.05168654       4.47555376        2       0.00000000      -0.03696687      -0.05136962      -0.13819035
Ni      10.51864889       6.06429925       4.53767240        2       1.00000000      -0.04025442      -0.02862646      -0.10240079
Ni       3.96512704       8.34629964       4.47484564        2       1.00000000      -0.01065815      -0.05076602       0.00229510
Ni       6.57732010       8.33974464       4.47206026        2       1.00000000       0.02414595      -0.03554329      -0.05453662
Pt       9.15291570       8.30425349       4.52369444        2       0.00000000      -0.02776708       0.01329885      -0.05621169
Pt      11.83083357       8.30976679       4.52189436        2       0.00000000      -0.03328671       0.00914797       0.00352530
Pt       0.08849583       0.00754959       6.65782546        1       0.00000000       0.04436454       0.03264444      -0.00649874
Ni       2.65007685       0.00724025       6.73061032        1       1.00000000      -0.02456474       0.08756678      -0.04838457
Pt       5.18666209      -0.05004911       6.80683147        1       0.00000000      -0.10553544       0.00805696       0.11951919
Pt       7.89307028      -0.04493202       6.77993086        1       0.00000000      -0.00950130       0.01470144       0.08437039
Ni       1.34513662       2.25365370       6.64593846        1       1.00000000      -0.05876484       0.02966019      -0.22315466
Ni       3.92959404       2.23421625       6.74409262        1       1.00000000      -0.03653896      -0.02595606      -0.07300046
Pt       6.57000982       2.28101492       6.79946584        1       0.00000000      -0.02123309      -0.03450684       0.07955275
Pt       9.24651661       2.29550617       6.80524872        1       0.00000000       0.05438224       0.05583951       0.11502462
Pt       2.62460649       4.48840790       6.68320850        1       0.00000000       0.00091564      -0.07687022       0.00295028
Pt       5.30275421       4.52617330       6.76508104        1       0.00000000       0.03696771       0.03130885       0.16977033
Ni       7.90718809       4.55089382       6.73955580        1       1.00000000      -0.03236368       0.01422409      -0.10017749
Pt      10.48828066       4.62750969       6.77544421        1       0.00000000      -0.06829202       0.14585235       0.13466530
Pt       3.93730649       6.82493813       6.75628424        1       0.00000000       0.02000489      -0.00060174       0.15745035
Pt       6.68584361       6.84144389       6.68452704        1       0.00000000       0.12033764       0.06231045       0.05762817
Ni       9.22411957       6.80981140       6.63466331        1       1.00000000       0.02792334       0.00931452      -0.30337414
Ni      11.81443705       6.80915559       6.64343053        1       1.00000000      -0.05012561       0.01780789      -0.25491760
