64
Lattice="10.56313462905972 0.005786807636107409 0.013110765988657498 5.286578836949542 9.175444889204075 -0.0065612412444147755 0.0 0.0 21.824675650762924" Properties=species:S:1:pos:R:3:tags:I:1:initial_magmoms:R:1:forces:R:3 unique_id=146b30837e48479aa8bf7359c384cfc2 stress="0.005663931883192464 -0.00012384881775182356 -5.9846218119677474e-05 -0.00012384881775182356 0.00623225060783468 -6.853991498493442e-05 -5.9846218119677474e-05 -6.853991498493442e-05 0.00012665305776394208" energy=-391.30375523047167 pbc="T T T"
Pt       0.01729180       0.03400636       0.00000000        0       0.00000000      -0.01489474      -0.13866678      -0.17711845
Ni       2.64530823       0.00946175       0.09710286        1       1.00000000      -0.05096833      -0.03465224       0.10261867
Pt       5.24648843       0.00192366       0.01207358        0       0.00000000       0.12756381       0.05249661      -0.09935094
Pt       7.91600655       0.01716045       0.08978841        1       0.00000000      -0.08979691       0.07461936      -0.49052846
Pt       1.32282993       2.28183119       0.01168288        0       0.00000000      -0.04276685       0.13279958       0.03228097
Ni       3.95346996       2.28602065       0.10232744        1       1.00000000       0.00804855       0.06756196       0.19673478
Pt       6.64567923       2.32363467       0.09308646        1       0.00000000       0.10156689      -0.05384322      -0.33001759
Ni       9.25051134       2.31942872       0.05011217        1       1.00000000      -0.01458370      -0.01472099       0.41438045
Pt       2.61724437       4.58890069       0.10327791        1       0.00000000      -0.14145846       0.07393011      -0.47218152
Pt       5.31149994       4.56806578       0.10764557        1       0.00000000       0.06579677       0.03227187      -0.44121651
Ni       7.94075962       4.58156374       0.11211488        1       1.00000000      -0.02380651       0.04754798       0.27374635
Pt      10.51631857       4.57215429       0.09469432        1       0.00000000      -0.03385570      -0.07827694       0.37812716
Pt       3.94160219       6.88071112       0.07685148        1       0.00000000       0.09584779      -0.00600283      -0.89095965
Pt       6.64356138       6.86478789       0.10449699        1       0.00000000      -0.05455158      -0.13609715      -0.68836286
Pt       9.26307368       6.86055952       0.02378770        0       0.00000000       0.08231254      -0.14335085      -0.00580324
Ni      11.87206211       6.87944875       0.09859406        1       1.00000000      -0.05904003      -0.02190813       0.15587766
Pt       1.30583182       0.79734959       2.30659841        2       0.00000000       0.01311752       0.02563973       0.24762953
Pt       3.95340818       0.76320020       2.25746684        2       0.00000000       0.02134868      -0.06660085       0.16637000
Pt       6.61772280       0.76676611       2.37275680        3       0.00000000       0.04802871       0.02301454       0.46778009
Pt       9.26364694       0.84991864       2.34575064        2       0.00000000       0.03388381       0.37938753       0.27768907
Pt       2.59212967       3.09157746       2.31795184        2       0.00000000      -0.17454745       0.08209973       0.29782668
Pt       5.31082292       3.09238152       2.35471569        3       0.00000000       0.08925023       0.01477019       0.45959796
Pt       7.99380482       3.15862227       2.35045743        3       0.00000000       0.18244137       0.25555127       0.31695280
Ni      10.55563142       3.09860590       2.31279093        2       1.00000000      -0.00443478       0.25079899       0.25611748
Pt       3.95672754       5.33005712       2.34269836        2       0.00000000      -0.08416398      -0.04855548       0.32344111
Ni       6.64236027       5.33252264       2.29228531        2       1.00000000       0.18856142      -0.05864862       0.32847221
Ni       9.26113022       5.32556103       2.30340275        2       1.00000000       0.16048349      -0.07110864       0.27399853
Ni      11.84480292       5.33734647       2.30011650        2       1.00000000      -0.23946719      -0.18549869       0.31221831
Pt       5.29281706       7.62917499       2.31705785        2       0.00000000      -0.07947741       0.10746085       0.29965583
Pt       7.95481679       7.58150769       2.30627108        2       0.00000000       0.13233593      -0.06954076       0.35802308
Pt      10.57795117       7.54937606       2.33883485        2       0.00000000      -0.05309135      -0.26404807       0.32181836
Pt      13.16762754       7.61479103       2.31553583        2       0.00000000      -0.03973472      -0.04654821       0.23164720
Ni      -0.03107572       1.55885394       4.58409863        5       1.00000000      -0.27134474       0.21234579       0.02691206
Pt       2.62031382       1.57199846       4.56736879        5       0.00000000      -0.01824501       0.18564841      -0.19860607
Pt       5.33883357       1.53870989       4.56279501        5       0.00000000      -0.00564929      -0.03129407      -0.13049401
Ni       7.96091477       1.56308538       4.56305634        5       1.00000000       0.22654735       0.31556815      -0.25981671
Pt       1.20097287       3.81716418       4.54215659        4       0.00000000      -0.53151197      -0.00512954      -0.21857249
Ni       3.97518543       3.80749988       4.55191650        5       1.00000000      -0.04650407      -0.04981667      -0.32343798
Ni       6.63808817       3.80703249       4.53994060        4       1.00000000       0.21099272      -0.09569600      -0.35294001
Ni       9.25335888       3.79531195       4.55020176        5       1.00000000      -0.06898818      -0.25888506      -0.17591231
Pt       2.57189869       6.10843676       4.50992171        4       0.00000000      -0.27002947      -0.00541490      -0.28153024
Pt       5.31249064       6.04202724       4.49840373        4       0.00000000       0.13070272      -0.13275840      -0.29099978
Pt       8.00459680       6.01820781       4.50789588        4       0.00000000       0.24887603      -0.29372916      -0.40071708
Ni      10.56706831       6.09587180       4.55387637        5       1.00000000      -0.04613639      -0.13920120      -0.23449434
Pt       3.94613449       8.48488738       4.53946617        4       0.00000000      -0.04409196       0.10592958      -0.26069611
Pt       6.59463413       8.44434723       4.55911057        5       0.00000000       0.05671053       0.03429864      -0.23110336
Pt       9.32572850       8.36005870       4.60709979        5       0.00000000       0.06630568      -0.09677056      -0.10038729
Ni      11.88793315       8.40738004       4.56929825        5       1.00000000       0.02896722       0.00456208      -0.28473467
Ni       0.00938740       0.03381409       6.72827138        6       1.00000000       0.02578644       0.21484248      -0.20620503
Pt       2.64807968       0.00184958       6.82467565        7       0.00000000      -0.08290626       0.01264375       0.20250004
Ni       5.28723750      -0.01727352       6.73868678        6       1.00000000       0.08125941       0.04390216      -0.05847440
Pt       7.93181152       0.04079826       6.71205111        6       0.00000000      -0.10562397       0.08160405       0.40128034
Ni       1.28353318       2.27847683       6.72810145        6       1.00000000      -0.24847824      -0.05714865      -0.31077145
Pt       3.95460220       2.26055626       6.80662865        7       0.00000000       0.00980510       0.09432125       0.18299937
Pt       6.66313322       2.27988684       6.70910502        6       0.00000000       0.28188954       0.13958885       0.44284786
Ni       9.28419784       2.28695117       6.77708516        7       1.00000000       0.20272575      -0.03137906      -0.74964054
Pt       2.58970668       4.54525274       6.71792234        6       0.00000000      -0.09322284      -0.07910543       0.34484825
Pt       5.30381092       4.55739128       6.70723611        6       0.00000000       0.09249951      -0.14699952       0.46351279
Pt       8.03786294       4.55796717       6.77722219        7       0.00000000       0.24505861      -0.09272383      -0.22306364
Ni      10.56055613       4.56779045       6.74085541        6       1.00000000      -0.05444219      -0.03307381      -0.41444167
Pt       3.96958032       6.90638488       6.72712523        6       0.00000000      -0.09319490       0.05183993       0.57800716
Pt       6.64923577       6.89099401       6.74213750        6       0.00000000       0.15935564      -0.06076973       0.51386183
Ni       9.26976020       6.86801665       6.73875370        6       1.00000000      -0.03797909      -0.09920077      -0.11887596
Pt      11.79184458       6.88639717       6.77145980        7       0.00000000      -0.19908151       0.03011940      -0.22831963
