64
Lattice="10.24866909425303 0.012387365711950657 -0.005020499562988667 5.135062320519032 8.88905519146362 0.018208845044947297 0.0 0.0 21.495578893317397" Properties=species:S:1:pos:R:3:tags:I:1:initial_magmoms:R:1:forces:R:3 unique_id=7e94bf40c6eb4cab9a714841c3d4b4ac stress="0.005218595889238884 0.0003364123875908659 0.0001341419013808051 0.0003364123875908659 0.005694694365400991 0.0001358464793238549 0.0001341419013808051 0.0001358464793238549 -0.0015515741594100182" energy=-374.2670985974299 pbc="T T T"
Ni       0.00046013       0.02617511       0.09438592        1       1.00000000       0.10544037      -0.02747771      -0.11984334
Ni       2.52694936       0.01748492       0.12721050        1       1.00000000      -0.06677606       0.07255299      -0.11065649
Pt       5.12021611      -0.02193042       0.05318271        1       0.00000000      -0.01370325       0.21847693      -0.97424773
Ni       7.72160509      -0.02901000       0.09710147        1       1.00000000      -0.06497495      -0.11116405      -0.25961750
Ni       1.24154212       2.23174189       0.03260239        0       1.00000000      -0.08826208       0.03567334       0.43025542
Pt       3.76469947       2.28583121       0.11414523        1       0.00000000       0.03235664       0.00353450      -0.53881330
Pt       6.45468116       2.23133032       0.03813012        0       0.00000000      -0.00615194      -0.01797365      -0.07571646
Ni       9.02153114       2.23416007       0.06854235        1       1.00000000       0.07473988       0.14807054      -0.07001513
Ni       2.55742453       4.47992285       0.00037850        0       1.00000000       0.08029428       0.00774893       0.24410339
Ni       5.09710057       4.48039236       0.11708636        1       1.00000000      -0.04680517       0.09529862       0.03889265
Pt       7.76974578       4.47293021       0.02838533        0       0.00000000       0.01275100       0.03380179       0.01832764
Ni      10.29056890       4.44678784       0.00227140        0       1.00000000       0.07762351      -0.09717487       0.28592846
Ni       3.81250113       6.66374432       0.04585193        0       1.00000000       0.00182518      -0.03033875       0.42039755
Pt       6.37569301       6.71769056       0.11323040        1       0.00000000      -0.10080734       0.06422325      -0.35934274
Ni       8.99213143       6.65924839       0.01256307        0       1.00000000      -0.04805505      -0.00708723       0.07571385
Ni      11.57024578       6.64497584       0.00000000        0       1.00000000       0.07365928       0.07480236       0.19067849
Ni       1.28852163       0.74702723       2.10537384        2       1.00000000      -0.01588976       0.01395382       0.06099348
Ni       3.81984461       0.77187254       2.14418310        2       1.00000000       0.03443752       0.00758274       0.18205081
Ni       6.40858916       0.79571067       2.16248096        3       1.00000000      -0.05869202       0.18728064       0.25948207
Pt       8.98593948       0.79056957       2.10873484        2       0.00000000       0.00524061       0.09092640       0.11615560
Ni       2.55221001       2.97338075       2.15849050        3       1.00000000       0.03624901       0.02372346       0.05096511
Ni       5.11751286       2.99393820       2.17006654        3       1.00000000      -0.07427420       0.02650093       0.16435464
Ni       7.70622047       2.99472567       2.16841956        3       1.00000000       0.05060493       0.06382175       0.20068448
Ni      10.25502670       2.97379054       2.13216798        2       1.00000000       0.05430403       0.00244745       0.13004520
Ni       3.88627934       5.19020589       2.14623050        2       1.00000000       0.13357052      -0.01829298       0.12584247
Ni       6.39604814       5.19733366       2.16607822        3       1.00000000      -0.02960499       0.03604381       0.11244826
Ni       8.94386144       5.16593971       2.16201201        3       1.00000000      -0.10100483      -0.19932773       0.21938422
Pt      11.59166484       5.12945942       2.10316004        2       0.00000000       0.12036798      -0.10492279       0.08519723
Ni       5.13222846       7.38819371       2.16770053        3       1.00000000       0.02303425      -0.12050699       0.13759378
Ni       7.65151603       7.41573991       2.15843675        3       1.00000000      -0.15010968      -0.04119188       0.13498880
Pt      10.22778229       7.35977388       2.12466302        2       0.00000000      -0.07270491      -0.15361953      -0.29449445
Ni      12.85847808       7.39361882       2.09500925        2       1.00000000       0.12520029      -0.10794256       0.01019310
Ni      -0.01025548       1.53751843       4.26501889        5       1.00000000      -0.10855577       0.05379309      -0.15639843
Pt       2.49242453       1.55763696       4.17688592        4       0.00000000      -0.06276583      -0.05752137       0.04035670
Ni       5.13623867       1.53273421       4.23827411        4       1.00000000      -0.04624305       0.02975485      -0.35502712
Ni       7.70050191       1.52939511       4.26209366        5       1.00000000       0.06292215      -0.05846073      -0.23516758
Ni       1.28281361       3.70401586       4.31872323        5       1.00000000       0.00518314      -0.03415195      -0.02342421
Ni       3.82584721       3.76800998       4.23260500        4       1.00000000      -0.02872343       0.07650070      -0.31280877
Pt       6.42512510       3.71972134       4.21952689        4       0.00000000      -0.06736913       0.00239658       0.01475105
Ni       8.97757142       3.69900420       4.24895924        4       1.00000000       0.02116791      -0.13980390      -0.33767316
Ni       2.60296564       5.87758782       4.31796600        5       1.00000000       0.11027341      -0.13751226      -0.08120603
Ni       5.12096220       5.91525796       4.23226799        4       1.00000000       0.04182056      -0.15375953      -0.36102074
Ni       7.67479657       5.91114443       4.24616662        4       1.00000000      -0.08137078      -0.09149528      -0.36784508
Pt      10.24852034       5.83754598       4.35805464        6       0.00000000       0.05251785      -0.02294337       0.04547013
Pt       3.92097815       8.09812223       4.24989873        4       0.00000000       0.11607918      -0.07811868       0.11620634
Ni       6.40012170       8.14208726       4.22874003        4       1.00000000      -0.06797641      -0.00823333      -0.38988758
Pt       8.88888547       8.13814533       4.23847087        4       0.00000000      -0.14348719       0.00199769      -0.00929694
Pt      11.58406378       8.17118050       4.21630538        4       0.00000000       0.08425165      -0.04291059      -0.09270464
Pt       0.00492771       0.03747128       6.46392778        9       0.00000000       0.06280985       0.11944574       0.20186635
Pt       2.55195961       0.01998345       6.49557889        9       0.00000000      -0.01260156      -0.03790819       0.39766047
Pt       5.12983286      -0.01694048       6.37059064        8       0.00000000      -0.00795274       0.16339115       1.05345742
Pt       7.68437747      -0.00904573       6.49070140        9       0.00000000       0.01102999       0.16689557       0.29701411
Ni       1.26506828       2.30880894       6.42572532        8       1.00000000      -0.04359713       0.17049850      -0.24506656
Pt       3.80565916       2.29747447       6.36457702        8       0.00000000       0.10144474       0.05169834       0.49617377
Ni       6.42051437       2.26062982       6.34881146        7       1.00000000      -0.04074097      -0.03877719       0.08928656
Pt       8.97838635       2.35000799       6.41191006        8       0.00000000      -0.04499181      -0.02223543      -0.00269057
Ni       2.50694421       4.49547310       6.41632860        8       1.00000000      -0.06441226       0.00841182      -0.36176386
Pt       5.09243856       4.48212082       6.44894728        8       0.00000000      -0.06610816       0.01992096      -0.00293516
Ni       7.72480635       4.47822409       6.34972430        7       1.00000000       0.04471545       0.10126028      -0.04989207
Ni      10.28113944       4.47813173       6.44979345        8       1.00000000       0.05513758      -0.06479039      -0.12912735
Ni       3.80036652       6.63867333       6.43920272        8       1.00000000      -0.07485440      -0.05745526      -0.25769594
Pt       6.44373749       6.63984693       6.33934898        7       0.00000000       0.02803101       0.02775333       0.35298208
Ni       9.00137843       6.61591138       6.45081787        9       1.00000000       0.00075879      -0.11457866      -0.06244172
Ni      11.54950506       6.62102739       6.45372870        9       1.00000000       0.05972430      -0.00250604      -0.16308104
