64
Lattice="10.070345234368155 0.004645726298057296 -0.02111090524668141 5.039195934177223 8.71307467562642 -0.03663007487910867 -0.017236981954204672 -0.024583389618575088 8.601209862050903" Properties=species:S:1:pos:R:3:tags:I:1:initial_magmoms:R:1:forces:R:3 unique_id=d7ef4e135cbd4d7f93abc87ee3310833 stress="-0.00039849674408343194 -2.190470930690549e-06 4.778390159616834e-06 -2.190470930690549e-06 -0.0003786069307077297 1.2150593165515347e-05 4.778390159616834e-06 1.2150593165515347e-05 -0.00030963042085870723" energy=-387.06993189409076 pbc="T T T"
Ni       0.01526538      -0.02370510       0.15519911        4       1.00000000       0.00696960       0.01198010       0.18260796
Ni       2.48087519      -0.00624595       0.19117051        4       1.00000000      -0.08978608      -0.04676024       0.25560325
Ni       5.06817226      -0.00884242       0.19540698        4       1.00000000      -0.00510423      -0.06065158       0.30822728
Ni       7.52104341      -0.03944002       0.07331921        4       1.00000000      -0.01860915      -0.07503165       0.07801779
Ni       1.26026387       2.18936231       0.10858674        4       1.00000000      -0.00297158       0.03748967       0.21973070
Pt       3.76875219       2.18772197       0.18600600        4       0.00000000      -0.02951543      -0.00254143       0.22329818
Ni       6.28774614       2.18233261       0.09913882        4       1.00000000      -0.02303430       0.01646448       0.20807778
Pt       8.80751752       2.22219213       0.10395940        4       0.00000000      -0.01663515       0.01138979       0.15559931
Ni       2.49442200       4.38954521       0.09300939        4       1.00000000      -0.02515775       0.04057818       0.15393201
Ni       5.04706462       4.38438651       0.16672564        4       1.00000000      -0.04320252       0.06466281       0.26665482
Ni       7.50511134       4.36141814       0.08469862        4       1.00000000      -0.13455999       0.02596026       0.18298310
Ni      10.12146324       4.36271498       0.07531291        4       1.00000000       0.13118142       0.03318208       0.18889842
Ni       3.75274582       6.51467641       0.05241729        4       1.00000000      -0.08088818      -0.07391570       0.03251192
Ni       6.27527327       6.51539264       0.05054627        4       1.00000000      -0.00490526      -0.07393127       0.02121643
Pt       8.81990483       6.52314351       0.14476035        4       0.00000000       0.02033573      -0.01093918       0.11928936
Ni      11.36757141       6.52858397       0.06459005        4       1.00000000       0.01324512      -0.02526307       0.13731102
Ni       1.29470901       0.75343873       2.17401052        3       1.00000000      -0.05232286       0.05021501       0.09386406
Ni       3.75140856       0.67942483       2.17626878        3       1.00000000      -0.09249257      -0.08268123       0.03294246
Ni       6.27374888       0.71059868       2.11869553        3       1.00000000       0.04596561      -0.01996161      -0.01912215
Pt       8.77644603       0.72768454       2.22305642        3       0.00000000       0.01657470       0.08635820      -0.09711278
Ni       2.48182647       2.92649172       2.20762504        3       1.00000000      -0.01871633       0.05964381       0.11298452
Ni       5.06055195       2.94597167       2.16962518        3       1.00000000      -0.01048131       0.14678892       0.03362939
Ni       7.51236902       2.95096957       2.18255938        3       1.00000000       0.03422964      -0.01947314       0.10030862
Ni      10.11040546       2.95134345       2.18226527        3       1.00000000       0.00720533       0.03301074       0.09977167
Ni       3.74138474       5.04217778       2.14987939        3       1.00000000      -0.12612651      -0.04299708       0.06778297
Ni       6.32018742       5.04218090       2.14745399        3       1.00000000       0.08601108       0.00722602       0.10431876
Ni       8.81595688       5.05152264       2.18241632        3       1.00000000       0.05522264       0.01213828       0.01656806
Ni      11.32858601       5.08275004       2.13377747        3       1.00000000      -0.00306656       0.02076553       0.07374974
Pt       5.05760563       7.18327262       2.14832099        3       0.00000000      -0.04509467      -0.09605093      -0.03875887
Ni       7.56998168       7.26071742       2.18464456        3       1.00000000       0.05655425      -0.09658744       0.10009263
Ni      10.10072053       7.25577993       2.17963373        3       1.00000000       0.02539294      -0.10357253       0.12328652
Ni      12.53918188       7.21672264       2.12123983        3       1.00000000      -0.00975241      -0.12587437       0.05386522
Ni       0.03688798       1.46060342       4.24002103        2       1.00000000       0.11018962       0.06911189      -0.06270082
Ni       2.45525416       1.45512355       4.19621066        2       1.00000000       0.01600489       0.03540392      -0.11952533
Pt       5.05482421       1.45136222       4.15572095        2       0.00000000      -0.09492611      -0.00219542       0.10026816
Ni       7.53972826       1.43862453       4.24145492        2       1.00000000      -0.05466810       0.03527694      -0.01298758
Ni       1.25074338       3.63199986       4.25510470        2       1.00000000       0.02167843       0.06107636      -0.10879230
Ni       3.73224620       3.68168566       4.18899696        2       1.00000000      -0.01227425       0.10014705      -0.12269927
Ni       6.32384302       3.65269554       4.22059932        2       1.00000000       0.02281389       0.06266102      -0.07091546
Ni       8.81377315       3.66973532       4.18976726        2       1.00000000       0.05548486       0.09450098      -0.16114705
Ni       2.50490496       5.78853478       4.24683589        2       1.00000000      -0.00042478      -0.06513422      -0.22142565
Ni       5.02206383       5.80070538       4.23682399        2       1.00000000      -0.04510732      -0.07583247      -0.04887704
Ni       7.52054376       5.77595314       4.18029827        2       1.00000000      -0.01300223       0.00670168      -0.17154836
Ni      10.10588874       5.77396762       4.17771091        2       1.00000000       0.09823495      -0.03934767      -0.19334324
Ni       3.73186179       7.93712776       4.24931907        2       1.00000000      -0.08582835      -0.16240421      -0.03497838
Ni       6.29740785       7.95510600       4.20036107        2       1.00000000       0.04455142       0.01472563      -0.04826379
Ni       8.80106086       7.94810368       4.16325063        2       1.00000000       0.06031381      -0.07594916      -0.05361719
Ni      11.36192988       7.91953931       4.18959879        2       1.00000000       0.01259909      -0.08894250      -0.12839131
Pt      -0.07225467      -0.06997363       6.35530942        1       0.00000000       0.06220771      -0.03196463       0.06256442
Pt       2.48488308      -0.02470446       6.34935613        1       0.00000000       0.00683911       0.02526223       0.07872784
Pt       5.12999554      -0.04156139       6.38792539        1       0.00000000       0.09742779       0.00353779       0.17864200
Ni       7.55197884      -0.04804393       6.32726107        1       1.00000000      -0.02701253      -0.03307078      -0.23179824
Ni       1.22207041       2.21755054       6.33307538        1       1.00000000      -0.03529416       0.02256018      -0.17739355
Pt       3.71513265       2.24123343       6.28565754        1       0.00000000      -0.07659161       0.10525201      -0.19696130
Ni       6.30890957       2.18365791       6.34302265        1       1.00000000      -0.03651280       0.06593961      -0.14217786
Pt       8.78366269       2.22906177       6.22358073        1       0.00000000      -0.00401084       0.08865753      -0.31329972
Ni       2.45624810       4.39288650       6.32494782        1       1.00000000      -0.00826013       0.08397088      -0.18191741
Pt       5.05354164       4.41635989       6.33908035        1       0.00000000      -0.03082283       0.11204126       0.17946373
Ni       7.53553686       4.33984271       6.31526730        1       1.00000000      -0.02720859       0.03274426      -0.21140841
Ni      10.12387745       4.33843395       6.30726863        1       1.00000000       0.17848650       0.00353433      -0.19881180
Ni       3.71144619       6.51056369       6.31440645        1       1.00000000      -0.13790931      -0.03357128      -0.22761206
Ni       6.27976211       6.50838219       6.30786480        1       1.00000000       0.06747423       0.05946235      -0.29314975
Pt       8.82067349       6.41157974       6.22386082        1       0.00000000       0.12301820      -0.13887549      -0.25388544
Ni      11.38539560       6.47716624       6.30045433        1       1.00000000       0.04606422      -0.03690148      -0.20416795
